Siesta Version  : 4.1.5
Architecture    : unknown
Compiler version: GNU Fortran (conda-forge gcc 12.3.0-2) 12.3.0
Compiler flags  : x86_64-conda-linux-gnu-gfortran -march=nocona -mtune=haswell -ftree-vectorizee -fPIC -fstack-protector-strong -fno-plt -O2 -ffunction-sections -pipe  -fallow-argument-mismatch
PP flags        : -DFC_HAVE_ABORT -DCDF -DNCDF -DNCDF_4
Libraries       : libncdf.a libfdict.a -llapack -lblas -lnetcdff -lnetcdf -lhdf5_hl -lhdf5 -lz
SERIAL version
NetCDF support
NetCDF-4 support

* Running in serial mode
>> Start of run:  15-MAR-2024  13:36:52

                           ***********************       
                           *  WELCOME TO SIESTA  *       
                           ***********************       

reinit: Reading from xoc.fdf

reinit: -----------------------------------------------------------------------
reinit: System Name: H2 + O2 -> H2O2 reaction
reinit: -----------------------------------------------------------------------
reinit: System Label: xoc
reinit: -----------------------------------------------------------------------

initatom: Reading input for the pseudopotentials and atomic orbitals ----------
Species number:   1 Atomic number:    8 Label: O
Species number:   2 Atomic number:    1 Label: H

Ground state valence configuration:   2s02  2p04
Reading pseudopotential information in formatted form from O.psf

Pseudopotential generated from a relativistic atomic calculation

Valence configuration for pseudopotential generation:
2s( 2.00) rc: 1.14
2p( 4.00) rc: 1.14
3d( 0.00) rc: 1.14
4f( 0.00) rc: 1.14
Ground state valence configuration:   1s01
Reading pseudopotential information in unformatted form from H.vps

Valence configuration for pseudopotential generation:
1s( 1.00) rc: 1.25
2p( 0.00) rc: 1.25
3d( 0.00) rc: 1.25
4f( 0.00) rc: 1.25
For O, standard SIESTA heuristics set lmxkb to 3
 (one more than the basis l, including polarization orbitals).
Use PS.lmax or PS.KBprojectors blocks to override.
For H, standard SIESTA heuristics set lmxkb to 2
 (one more than the basis l, including polarization orbitals).
Use PS.lmax or PS.KBprojectors blocks to override.

<basis_specs>
===============================================================================
O                    Z=   8    Mass=  16.000        Charge=-0.18518    
Lmxo=2 Lmxkb= 3    BasisType=split      Semic=F
L=0  Nsemic=0  Cnfigmx=2
          i=1  nzeta=2  polorb=0  (2s)
            splnorm:   0.15000    
               vcte:    87.074    
               rinn:    4.7393    
               qcoe:    0.0000    
               qyuk:    0.0000    
               qwid:   0.10000E-01
                rcs:    7.3294      4.6037    
            lambdas:    1.0000      1.0000    
L=1  Nsemic=0  Cnfigmx=2
          i=1  nzeta=2  polorb=0  (2p)
            splnorm:   0.15000    
               vcte:    68.296    
               rinn:    4.9704    
               qcoe:    0.0000    
               qyuk:    0.0000    
               qwid:   0.10000E-01
                rcs:    6.6025      3.0467    
            lambdas:    1.0000      1.0000    
L=2  Nsemic=0  Cnfigmx=3
          i=1  nzeta=1  polorb=0  (3d)
            splnorm:   0.15000    
               vcte:    91.071    
               rinn:    3.9512    
               qcoe:    0.0000    
               qyuk:    0.0000    
               qwid:   0.10000E-01
                rcs:    6.8934    
            lambdas:    1.0000    
-------------------------------------------------------------------------------
L=0  Nkbl=1  erefs: 0.17977+309
L=1  Nkbl=1  erefs: 0.17977+309
L=2  Nkbl=1  erefs: 0.17977+309
L=3  Nkbl=1  erefs: 0.17977+309
===============================================================================
</basis_specs>

atom: Called for O                     (Z =   8)

read_vps: Pseudopotential generation method:
read_vps: ATM3      Troullier-Martins                       
Valence charge for ps generation:    6.00000

read_vps: Pseudopotential includes a core correction:
read_vps: Pseudo-core for xc-correction

xc_check: Exchange-correlation functional:
xc_check: GGA Perdew, Burke & Ernzerhof 1996
V l=0 = -2*Zval/r beyond r=  1.1278
V l=1 = -2*Zval/r beyond r=  1.1278
V l=2 = -2*Zval/r beyond r=  1.1278
V l=3 = -2*Zval/r beyond r=  1.1278
All V_l potentials equal beyond r=  1.1278
This should be close to max(r_c) in ps generation
All pots = -2*Zval/r beyond r=  1.1278

VLOCAL1: 99.0% of the norm of Vloc inside     34.126 Ry
VLOCAL1: 99.9% of the norm of Vloc inside     77.774 Ry
atom: Maximum radius for 4*pi*r*r*local-pseudopot. charge    1.37759
atom: Maximum radius for r*vlocal+2*Zval:    1.18566
GHOST: No ghost state for L =  0
GHOST: No ghost state for L =  1
GHOST: No ghost state for L =  2
GHOST: No ghost state for L =  3

KBgen: Kleinman-Bylander projectors: 
   l= 0   rc=  1.360471   el= -1.759790   Ekb=  9.210761   kbcos=  0.328866
   l= 1   rc=  1.360471   el= -0.663797   Ekb= -7.921990   kbcos= -0.392961
   l= 2   rc=  1.791199   el=  0.002031   Ekb= -1.950550   kbcos= -0.003498
   l= 3   rc=  2.107308   el=  0.003153   Ekb= -0.856060   kbcos= -0.000334

KBgen: Total number of Kleinman-Bylander projectors:   16
atom: -------------------------------------------------------------------------

atom: SANKEY-TYPE ORBITALS:
atom: Selected multiple-zeta basis: split     

atom: basis set generated (by rescaling the valence charge)
atom: for an anion of charge  -0.1852

SPLIT: Orbitals with angular momentum L= 0

SPLIT: Basis orbitals for state 2s

   izeta = 1
                 lambda =    1.000000
                     rc =    7.356000
                 energy =   -1.758588
                kinetic =    1.491851
    potential(screened) =   -3.250439
       potential(ionic) =  -11.062471

   izeta = 2
                 rmatch =    4.690281
              splitnorm =    0.003309
                 energy =   -1.757602
* WARNING: effective split_norm is quite small. Orbitals will be very similar.
                kinetic =    1.574378
    potential(screened) =   -3.331980
       potential(ionic) =  -11.238433

SPLIT: Orbitals with angular momentum L= 1

SPLIT: Basis orbitals for state 2p

   izeta = 1
                 lambda =    1.000000
                     rc =    6.655955
                 energy =   -0.659921
                kinetic =    4.410674
    potential(screened) =   -5.070596
       potential(ionic) =  -12.498772

   izeta = 2
                 rmatch =    3.066256
              splitnorm =    0.127283
                 energy =   -0.537509
                kinetic =    6.271972
    potential(screened) =   -6.809481
       potential(ionic) =  -15.130217

SPLIT: Orbitals with angular momentum L= 2

SPLIT: Basis orbitals for state 3d

   izeta = 1
                 lambda =    1.000000
                     rc =    6.997229
                 energy =    0.764795
                kinetic =    1.136799
    potential(screened) =   -0.372004
       potential(ionic) =   -3.984199
atom: Total number of Sankey-type orbitals: 13

atm_pop: Valence configuration (for local Pseudopot. screening):
 2s( 2.00)                                                            
 2p( 4.00)                                                            
 3d( 0.00)                                                            
Vna: chval, zval:    6.00000   6.00000

Vna:  Cut-off radius for the neutral-atom potential:   7.356000
comcore: Pseudo-core radius Rcore=  1.377587

atom: _________________________________________________________________________

<basis_specs>
===============================================================================
H                    Z=   1    Mass=  1.0100        Charge= 0.22000    
Lmxo=1 Lmxkb= 2    BasisType=split      Semic=F
L=0  Nsemic=0  Cnfigmx=1
          i=1  nzeta=2  polorb=0  (1s)
            splnorm:   0.15000    
               vcte:    2.0700    
               rinn:    0.0000    
               qcoe:    0.0000    
               qyuk:    0.0000    
               qwid:   0.10000E-01
                rcs:    4.9710      1.7710    
            lambdas:    1.0000      1.0000    
L=1  Nsemic=0  Cnfigmx=2
          i=1  nzeta=1  polorb=0  (2p)
            splnorm:   0.15000    
               vcte:   0.89000    
               rinn:   0.10000E-01
               qcoe:    0.0000    
               qyuk:    0.0000    
               qwid:   0.10000E-01
                rcs:    4.9880    
            lambdas:    1.0000    
-------------------------------------------------------------------------------
L=0  Nkbl=1  erefs: 0.17977+309
L=1  Nkbl=1  erefs: 0.17977+309
L=2  Nkbl=1  erefs: 0.17977+309
===============================================================================
</basis_specs>

atom: Called for H                     (Z =   1)

read_vps: Pseudopotential generation method:
read_vps: ATM3      Troullier-Martins                       
Valence charge for ps generation:    1.00000

xc_check: Exchange-correlation functional:
xc_check: GGA Perdew, Burke & Ernzerhof 1996
V l=0 = -2*Zval/r beyond r=  1.2343
V l=1 = -2*Zval/r beyond r=  1.2189
V l=2 = -2*Zval/r beyond r=  1.2189
All V_l potentials equal beyond r=  1.2343
This should be close to max(r_c) in ps generation
All pots = -2*Zval/r beyond r=  1.2343

VLOCAL1: 99.0% of the norm of Vloc inside     28.493 Ry
VLOCAL1: 99.9% of the norm of Vloc inside     64.935 Ry
atom: Maximum radius for 4*pi*r*r*local-pseudopot. charge    1.45251
atom: Maximum radius for r*vlocal+2*Zval:    1.21892
GHOST: No ghost state for L =  0
GHOST: No ghost state for L =  1
GHOST: No ghost state for L =  2

KBgen: Kleinman-Bylander projectors: 
   l= 0   rc=  1.364359   el= -0.477200   Ekb= -2.021939   kbcos= -0.344793
   l= 1   rc=  1.434438   el=  0.001076   Ekb= -0.443447   kbcos= -0.022843
   l= 2   rc=  1.470814   el=  0.002010   Ekb= -0.140543   kbcos= -0.002863

KBgen: Total number of Kleinman-Bylander projectors:    9
atom: -------------------------------------------------------------------------

atom: SANKEY-TYPE ORBITALS:
atom: Selected multiple-zeta basis: split     

atom: basis set generated (by rescaling the valence charge)
atom: for a cation of charge   0.2200

SPLIT: Orbitals with angular momentum L= 0

SPLIT: Basis orbitals for state 1s

   izeta = 1
                 lambda =    1.000000
                     rc =    4.950554
                 energy =   -0.678603
                kinetic =    1.118239
    potential(screened) =   -1.796842
       potential(ionic) =   -2.106311

   izeta = 2
                 rmatch =    1.774652
              splitnorm =    0.672347
                 energy =    1.027037
                kinetic =    4.730146
    potential(screened) =   -3.703109
       potential(ionic) =   -3.968059

SPLIT: Orbitals with angular momentum L= 1

SPLIT: Basis orbitals for state 2p

   izeta = 1
                 lambda =    1.000000
                     rc =    5.075940
                 energy =    0.310352
                kinetic =    0.887169
    potential(screened) =   -0.576817
       potential(ionic) =   -0.872649
atom: Total number of Sankey-type orbitals:  5

atm_pop: Valence configuration (for local Pseudopot. screening):
 1s( 1.00)                                                            
 2p( 0.00)                                                            
Vna: chval, zval:    1.00000   1.00000

Vna:  Cut-off radius for the neutral-atom potential:   4.950554

atom: _________________________________________________________________________

prinput: Basis input ----------------------------------------------------------

PAO.BasisType split     

%block ChemicalSpeciesLabel
    1    8 O                       # Species index, atomic number, species label
    2    1 H                       # Species index, atomic number, species label
%endblock ChemicalSpeciesLabel

%block PAO.Basis                 # Define Basis set
O                     3  -0.185            # Label, l-shells, ionic net charge
 n=2   0   2                         # n, l, Nzeta 
   7.356      4.690   
   1.000      1.000   
 n=2   1   2                         # n, l, Nzeta 
   6.656      3.066   
   1.000      1.000   
 n=3   2   1                         # n, l, Nzeta 
   6.997   
   1.000   
H                     2   0.220            # Label, l-shells, ionic net charge
 n=1   0   2                         # n, l, Nzeta 
   4.951      1.775   
   1.000      1.000   
 n=2   1   1                         # n, l, Nzeta 
   5.076   
   1.000   
%endblock PAO.Basis

prinput: ----------------------------------------------------------------------

Dumping basis to NetCDF file O.ion.nc
Dumping basis to NetCDF file H.ion.nc
coor:   Atomic-coordinates input format  =     Cartesian coordinates
coor:                                          (in Angstroms)

ioxv: Reading coordinates and velocities from file
! Info in XV file prevails over previous structure input
WARNING: xoc.VERLET_RESTART not found--reading only XV file and moving back 1 time step using Euler

siesta: Atomic coordinates (Bohr) and species
siesta:      2.55610  -0.01570   0.00221  1        1
siesta:      5.00284   0.01363  -0.00364  1        2
siesta:     12.94052   0.01600   0.01130  2        3
siesta:     14.34566   0.01600   0.01130  2        4

siesta: System type = chain     

initatomlists: Number of atoms, orbitals, and projectors:      4    36    50

coxmol: Writing XMOL coordinates into file xoc.xyz                                                             

siesta: ******************** Simulation parameters ****************************
siesta:
siesta: The following are some of the parameters of the simulation.
siesta: A complete list of the parameters used, including default values,
siesta: can be found in file out.fdf
siesta:
redata: Spin configuration                          = none
redata: Number of spin components                   = 1
redata: Time-Reversal Symmetry                      = T
redata: Spin spiral                                 = F
redata: Long output                                 =   F
redata: Number of Atomic Species                    =        2
redata: Charge density info will appear in .RHO file
redata: Write Mulliken Pop.                         = NO
redata: Matel table size (NRTAB)                    =     1024
redata: Mesh Cutoff                                 =   200.0000 Ry
redata: Net charge of the system                    =     0.0000 |e|
redata: Min. number of SCF Iter                     =        0
redata: Max. number of SCF Iter                     =      150
redata: SCF convergence failure will abort job
redata: SCF mix quantity                            = Hamiltonian
redata: Mix DM or H after convergence               =   F
redata: Recompute H after scf cycle                 =   F
redata: Mix DM in first SCF step                    =   T
redata: Write Pulay info on disk                    =   F
redata: New DM Occupancy tolerance                  = 0.000000000001
redata: No kicks to SCF
redata: DM Mixing Weight for Kicks                  =     0.5000
redata: Require Harris convergence for SCF          =   F
redata: Harris energy tolerance for SCF             =     0.000100 eV
redata: Require DM convergence for SCF              =   T
redata: DM tolerance for SCF                        =     0.000300
redata: Require EDM convergence for SCF             =   F
redata: EDM tolerance for SCF                       =     0.001000 eV
redata: Require H convergence for SCF               =   T
redata: Hamiltonian tolerance for SCF               =     0.001000 eV
redata: Require (free) Energy convergence for SCF   =   F
redata: (free) Energy tolerance for SCF             =     0.000100 eV
redata: Using Saved Data (generic)                  =   F
redata: Use continuation files for DM               =   F
redata: Neglect nonoverlap interactions             =   F
redata: Method of Calculation                       = Diagonalization
redata: Electronic Temperature                      =   290.1109 K
redata: Fix the spin of the system                  =   F
redata: Dynamics option                             = Verlet MD run
redata: Initial MD time step                        =        1
redata:   Final MD time step                        =      100
redata: Length of MD time step                      =     1.0000 fs
redata: Initial Temperature of MD run               =     0.0000 K
redata: Perform a MD quench                         =   F
mix.SCF: Pulay mixing                            = Pulay
mix.SCF:    Variant                              = stable
mix.SCF:    History steps                        = 6
mix.SCF:    Linear mixing weight                 =     0.020000
mix.SCF:    Mixing weight                        =     0.020000
mix.SCF:    SVD condition                        = 0.1000E-07
redata: Save all siesta data in one NC              =   F
redata: ***********************************************************************

%block SCF.Mixers
  Pulay
%endblock SCF.Mixers

%block SCF.Mixer.Pulay
  # Mixing method
  method pulay
  variant stable

  # Mixing options
  weight 0.0200
  weight.linear 0.0200
  history 6
%endblock SCF.Mixer.Pulay

Size of DM history Fstack: 1
Total number of electrons:    14.000000
Total ionic charge:    14.000000
 Kpoints in:            1 . Kpoints trimmed:            1

siesta: k-grid: Number of k-points =     1
siesta: k-grid: Cutoff (effective) =     5.000 Ang
siesta: k-grid: Supercell and displacements
siesta: k-grid:    1   0   0      0.000
siesta: k-grid:    0   1   0      0.000
siesta: k-grid:    0   0   1      0.000

diag: Algorithm                                     = D&C
diag: Used triangular part                          = Lower
diag: Absolute tolerance                            =  0.100E-15
diag: Orthogonalization factor                      =  0.100E-05
diag: Memory factor                                 =  1.0000


ts: **************************************************************
ts: Save H and S matrices                           =    F
ts: Save DM and EDM matrices                        =    F
ts: Only save the overlap matrix S                  =    F
ts: **************************************************************

************************ Begin: TS CHECKS AND WARNINGS ************************
************************ End: TS CHECKS AND WARNINGS **************************


                     ====================================
                        Begin MD step =      1
                     ====================================

outcell: Unit cell vectors (Ang):
       10.000000    0.000000    0.000000
        0.000000   10.000000    0.000000
        0.000000    0.000000   10.000000

outcell: Cell vector modules (Ang)   :   10.000000   10.000000   10.000000
outcell: Cell angles (23,13,12) (deg):     90.0000     90.0000     90.0000
outcell: Cell volume (Ang**3)        :   1000.0000
Gamma-point calculation with multiply-connected orbital pairs
Gamma-point calculation with multiply-connected orbital pairs
Folding of H and S implicitly performed
Folding of H and S implicitly performed
<dSpData1D:S at geom step 1
  <sparsity:sparsity for geom step 1
    nrows_g=36 nrows=36 sparsity=.9522 nnzs=1234, refcount: 7>
  <dData1D:(new from dSpData1D) n=1234, refcount: 1>
refcount: 1>
new_DM -- step:     1
Initializing Density Matrix...
DM filled with atomic data:
<dSpData2D:DM initialized from atoms
  <sparsity:sparsity for geom step 1
    nrows_g=36 nrows=36 sparsity=.9522 nnzs=1234, refcount: 8>
  <dData2D:DM n=1234 m=1, refcount: 1>
refcount: 1>
No. of atoms with KB's overlaping orbs in proc 0. Max # of overlaps:       4      29
New grid distribution:   1
           1       1:   45    1:   45    1:   45

InitMesh: MESH =    90 x    90 x    90 =      729000
InitMesh: (bp) =    45 x    45 x    45 =       91125
InitMesh: Mesh cutoff (required, used) =   200.000   223.865 Ry
ExtMesh (bp) on 0 =   117 x   117 x   117 =     1601613
PhiOnMesh: Number of (b)points on node 0 =                91125
PhiOnMesh: nlist on node 0 =               451230

stepf: Fermi-Dirac step function

siesta: Program's energy decomposition (eV):
siesta: Ebs     =      -191.146110
siesta: Eions   =      1592.294315
siesta: Ena     =       380.060395
siesta: Ekin    =       664.396120
siesta: Enl     =      -100.621407
siesta: Eso     =         0.000000
siesta: Edftu   =         0.000000
siesta: DEna    =       -43.387200
siesta: DUscf   =         3.051036
siesta: DUext   =         0.000000
siesta: Exc     =      -211.106948
siesta: eta*DQ  =         0.000000
siesta: Emadel  =         0.000000
siesta: Emeta   =         0.000000
siesta: Emolmec =         0.000000
siesta: Ekinion =         0.000000
siesta: Eharris =      -900.405138
siesta: Etot    =      -899.902320
siesta: FreeEng =      -899.971634

        iscf     Eharris(eV)        E_KS(eV)     FreeEng(eV)     dDmax    Ef(eV) dHmax(eV)
   scf:    1     -900.405138     -899.902320     -899.971634  3.498817 -9.408233  4.760746
timer: Routine,Calls,Time,% = IterSCF        1       1.396  37.82
   scf:    2     -899.985516     -899.944045     -900.013360  0.063890 -9.317400  4.601007
   scf:    3     -900.971323     -900.587389     -900.656704  2.513866 -6.729817  0.576685
   scf:    4     -900.011376     -900.350690     -900.420003  1.970069 -5.361239  3.314537
   scf:    5     -900.734819     -900.599247     -900.668560  1.708996 -6.766549  0.092583
   scf:    6     -900.599274     -900.599265     -900.668579  0.002879 -6.765388  0.088209
   scf:    7     -900.588188     -900.595047     -900.664353  0.245373 -6.988258  0.434722
   scf:    8     -900.600744     -900.598268     -900.667580  0.095037 -6.887779  0.228011
   scf:    9     -900.599945     -900.599199     -900.668510  0.061621 -6.826662  0.101856
   scf:   10     -900.599075     -900.599306     -900.668620  0.069830 -6.749566  0.080653
   scf:   11     -900.599508     -900.599438     -900.668753  0.035336 -6.784800  0.002556
   scf:   12     -900.599438     -900.599438     -900.668753  0.000203 -6.784609  0.002768
   scf:   13     -900.599437     -900.599438     -900.668753  0.000789 -6.784236  0.002506
   scf:   14     -900.599439     -900.599439     -900.668753  0.000448 -6.783488  0.001986
   scf:   15     -900.599439     -900.599439     -900.668753  0.000293 -6.783677  0.002069
   scf:   16     -900.599439     -900.599439     -900.668753  0.000139 -6.783332  0.000234

SCF Convergence by DM+H criterion
max |DM_out - DM_in|         :     0.0001391673
max |H_out - H_in|      (eV) :     0.0002335432
SCF cycle converged after 16 iterations

Using DM_out to compute the final energy and forces
No. of atoms with KB's overlaping orbs in proc 0. Max # of overlaps:       4      29

siesta: E_KS(eV) =             -900.5994

siesta: E_KS - E_eggbox =      -900.5994

siesta: Atomic forces (eV/Ang):
----------------------------------------
   Tot    0.000436    0.000460    0.000373
----------------------------------------
   Max    0.634263
   Res    0.256907    sqrt( Sum f_i^2 / 3N )
----------------------------------------
   Max    0.634263    constrained

Stress tensor Voigt[x,y,z,yz,xz,xy] (kbar):      -17.30       -0.10       -0.23       -0.16        0.09        0.06
(Free)E + p*V (eV/cell)     -897.0013
Target enthalpy (eV/cell)     -900.6688

siesta: Stress tensor (static) (eV/Ang**3):
        -0.000669   -0.000010    0.000002
        -0.000010    0.000005    0.000000
         0.000002    0.000000    0.000006

siesta: Pressure (static):          0.35124375  kBar

siesta: Stress tensor (total) (eV/Ang**3):
        -0.010796    0.000035    0.000055
         0.000035   -0.000060   -0.000100
         0.000055   -0.000100   -0.000146

siesta: Pressure (total):          5.87601832  kBar

siesta: Temp_ion =   13435.858 K

                     ====================================
                        Begin MD step =      2
                     ====================================

outcell: Unit cell vectors (Ang):
       10.000000    0.000000    0.000000
        0.000000   10.000000    0.000000
        0.000000    0.000000   10.000000

outcell: Cell vector modules (Ang)   :   10.000000   10.000000   10.000000
outcell: Cell angles (23,13,12) (deg):     90.0000     90.0000     90.0000
outcell: Cell volume (Ang**3)        :   1000.0000
Gamma-point calculation with multiply-connected orbital pairs
Gamma-point calculation with multiply-connected orbital pairs
Folding of H and S implicitly performed
Folding of H and S implicitly performed
<dSpData1D:S at geom step 2
  <sparsity:sparsity for geom step 2
    nrows_g=36 nrows=36 sparsity=.9383 nnzs=1216, refcount: 7>
  <dData1D:(new from dSpData1D) n=1216, refcount: 1>
refcount: 1>
new_DM -- step:     2
Re-using DM from previous geometries...
Number of DMs in history: 1
 DM extrapolation coefficients: 
1   1.00000
New DM after history re-use:
<dSpData2D:SpM extrapolated using coords
  <sparsity:sparsity for geom step 2
    nrows_g=36 nrows=36 sparsity=.9383 nnzs=1216, refcount: 9>
  <dData2D:(temp array for extrapolation) n=1216 m=1, refcount: 1>
refcount: 1>
No. of atoms with KB's overlaping orbs in proc 0. Max # of overlaps:       4      26
New grid distribution:   1
           1       1:   45    1:   45    1:   45

InitMesh: MESH =    90 x    90 x    90 =      729000
InitMesh: (bp) =    45 x    45 x    45 =       91125
InitMesh: Mesh cutoff (required, used) =   200.000   223.865 Ry
ExtMesh (bp) on 0 =   117 x   117 x   117 =     1601613
PhiOnMesh: Number of (b)points on node 0 =                91125
PhiOnMesh: nlist on node 0 =               451295

        iscf     Eharris(eV)        E_KS(eV)     FreeEng(eV)     dDmax    Ef(eV) dHmax(eV)
   scf:    1     -900.658431     -900.593681     -900.662995  0.221410 -6.892643  0.204213
   scf:    2     -900.591778     -900.593454     -900.662743  0.123827 -6.720013  0.192665
   scf:    3     -900.594706     -900.594226     -900.663536  0.051167 -6.790540  0.031622
   scf:    4     -900.594073     -900.594255     -900.663566  0.012656 -6.787564  0.023729
   scf:    5     -900.594292     -900.594304     -900.663619  0.007301 -6.790412  0.022182
   scf:    6     -900.594188     -900.594260     -900.663574  0.013366 -6.767956  0.045567
   scf:    7     -900.594322     -900.594308     -900.663622  0.017488 -6.787148  0.005177
   scf:    8     -900.594307     -900.594308     -900.663622  0.000667 -6.786081  0.004205
   scf:    9     -900.594308     -900.594308     -900.663623  0.000913 -6.784701  0.000014
   scf:   10     -900.594308     -900.594308     -900.663623  0.000000 -6.784701  0.000014

SCF Convergence by DM+H criterion
max |DM_out - DM_in|         :     0.0000004497
max |H_out - H_in|      (eV) :     0.0000137996
SCF cycle converged after 10 iterations

Using DM_out to compute the final energy and forces
No. of atoms with KB's overlaping orbs in proc 0. Max # of overlaps:       4      26

siesta: E_KS(eV) =             -900.5943

siesta: Atomic forces (eV/Ang):
----------------------------------------
   Tot    0.000466    0.000531    0.000321
----------------------------------------
   Max    0.608716
   Res    0.332165    sqrt( Sum f_i^2 / 3N )
----------------------------------------
   Max    0.608716    constrained

Stress tensor Voigt[x,y,z,yz,xz,xy] (kbar):      -17.91       -0.10       -0.24       -0.16        0.04        0.03
(Free)E + p*V (eV/cell)     -896.8669
Target enthalpy (eV/cell)     -900.6636

siesta: Stress tensor (static) (eV/Ang**3):
        -0.001054   -0.000028   -0.000027
        -0.000028    0.000005   -0.000001
        -0.000027   -0.000001    0.000004

siesta: Pressure (static):          0.55836845  kBar

siesta: Stress tensor (total) (eV/Ang**3):
        -0.011181    0.000016    0.000026
         0.000016   -0.000061   -0.000101
         0.000026   -0.000101   -0.000148

siesta: Pressure (total):          6.08314303  kBar

siesta: Temp_ion =   13426.183 K

                     ====================================
                        Begin MD step =      3
                     ====================================

outcell: Unit cell vectors (Ang):
       10.000000    0.000000    0.000000
        0.000000   10.000000    0.000000
        0.000000    0.000000   10.000000

outcell: Cell vector modules (Ang)   :   10.000000   10.000000   10.000000
outcell: Cell angles (23,13,12) (deg):     90.0000     90.0000     90.0000
outcell: Cell volume (Ang**3)        :   1000.0000
Gamma-point calculation with multiply-connected orbital pairs
Gamma-point calculation with multiply-connected orbital pairs
Folding of H and S implicitly performed
Folding of H and S implicitly performed
<dSpData1D:S at geom step 3
  <sparsity:sparsity for geom step 3
    nrows_g=36 nrows=36 sparsity=.9522 nnzs=1234, refcount: 7>
  <dData1D:(new from dSpData1D) n=1234, refcount: 1>
refcount: 1>
new_DM -- step:     3
Re-using DM from previous geometries...
Number of DMs in history: 1
 DM extrapolation coefficients: 
1   1.00000
New DM after history re-use:
<dSpData2D:SpM extrapolated using coords
  <sparsity:sparsity for geom step 3
    nrows_g=36 nrows=36 sparsity=.9522 nnzs=1234, refcount: 9>
  <dData2D:(temp array for extrapolation) n=1234 m=1, refcount: 1>
refcount: 1>
No. of atoms with KB's overlaping orbs in proc 0. Max # of overlaps:       4      29
New grid distribution:   1
           1       1:   45    1:   45    1:   45

InitMesh: MESH =    90 x    90 x    90 =      729000
InitMesh: (bp) =    45 x    45 x    45 =       91125
InitMesh: Mesh cutoff (required, used) =   200.000   223.865 Ry
ExtMesh (bp) on 0 =   117 x   117 x   117 =     1601613
PhiOnMesh: Number of (b)points on node 0 =                91125
PhiOnMesh: nlist on node 0 =               451289

        iscf     Eharris(eV)        E_KS(eV)     FreeEng(eV)     dDmax    Ef(eV) dHmax(eV)
   scf:    1     -900.619998     -900.596231     -900.665545  0.159907 -6.791633  0.011917
   scf:    2     -900.595872     -900.596122     -900.665437  0.014764 -6.789824  0.045073
   scf:    3     -900.596260     -900.596237     -900.665552  0.011700 -6.791252  0.007023
   scf:    4     -900.596242     -900.596240     -900.665555  0.004977 -6.790462  0.000473
   scf:    5     -900.596240     -900.596240     -900.665555  0.000406 -6.790485  0.000390
   scf:    6     -900.596240     -900.596240     -900.665555  0.000105 -6.790434  0.000615

SCF Convergence by DM+H criterion
max |DM_out - DM_in|         :     0.0001045842
max |H_out - H_in|      (eV) :     0.0006149450
SCF cycle converged after 6 iterations

Using DM_out to compute the final energy and forces
No. of atoms with KB's overlaping orbs in proc 0. Max # of overlaps:       4      29

siesta: E_KS(eV) =             -900.5962

siesta: Atomic forces (eV/Ang):
----------------------------------------
   Tot    0.000465    0.000281   -0.000023
----------------------------------------
   Max    0.546618
   Res    0.312063    sqrt( Sum f_i^2 / 3N )
----------------------------------------
   Max    0.546618    constrained

Stress tensor Voigt[x,y,z,yz,xz,xy] (kbar):      -17.76       -0.10       -0.25       -0.17       -0.03       -0.02
(Free)E + p*V (eV/cell)     -896.8976
Target enthalpy (eV/cell)     -900.6656

siesta: Stress tensor (static) (eV/Ang**3):
        -0.000966   -0.000046   -0.000056
        -0.000046    0.000002   -0.000006
        -0.000056   -0.000006   -0.000002

siesta: Pressure (static):          0.51623765  kBar

siesta: Stress tensor (total) (eV/Ang**3):
        -0.011083   -0.000010   -0.000016
        -0.000010   -0.000064   -0.000107
        -0.000016   -0.000107   -0.000157

siesta: Pressure (total):          6.03703395  kBar

siesta: Temp_ion =   13430.767 K

                     ====================================
                        Begin MD step =      4
                     ====================================

outcell: Unit cell vectors (Ang):
       10.000000    0.000000    0.000000
        0.000000   10.000000    0.000000
        0.000000    0.000000   10.000000

outcell: Cell vector modules (Ang)   :   10.000000   10.000000   10.000000
outcell: Cell angles (23,13,12) (deg):     90.0000     90.0000     90.0000
outcell: Cell volume (Ang**3)        :   1000.0000
Gamma-point calculation with multiply-connected orbital pairs
Gamma-point calculation with multiply-connected orbital pairs
Folding of H and S implicitly performed
Folding of H and S implicitly performed
<dSpData1D:S at geom step 4
  <sparsity:sparsity for geom step 4
    nrows_g=36 nrows=36 sparsity=.9475 nnzs=1228, refcount: 7>
  <dData1D:(new from dSpData1D) n=1228, refcount: 1>
refcount: 1>
new_DM -- step:     4
Re-using DM from previous geometries...
Number of DMs in history: 1
 DM extrapolation coefficients: 
1   1.00000
New DM after history re-use:
<dSpData2D:SpM extrapolated using coords
  <sparsity:sparsity for geom step 4
    nrows_g=36 nrows=36 sparsity=.9475 nnzs=1228, refcount: 9>
  <dData2D:(temp array for extrapolation) n=1228 m=1, refcount: 1>
refcount: 1>
No. of atoms with KB's overlaping orbs in proc 0. Max # of overlaps:       4      30
New grid distribution:   1
           1       1:   45    1:   45    1:   45

InitMesh: MESH =    90 x    90 x    90 =      729000
InitMesh: (bp) =    45 x    45 x    45 =       91125
InitMesh: Mesh cutoff (required, used) =   200.000   223.865 Ry
ExtMesh (bp) on 0 =   117 x   117 x   117 =     1601613
PhiOnMesh: Number of (b)points on node 0 =                91125
PhiOnMesh: nlist on node 0 =               451218

        iscf     Eharris(eV)        E_KS(eV)     FreeEng(eV)     dDmax    Ef(eV) dHmax(eV)
   scf:    1     -900.582935     -900.603992     -900.673307  0.259701 -6.695518  0.204627
   scf:    2     -900.601869     -900.603685     -900.672997  0.141620 -6.863830  0.218121
   scf:    3     -900.605023     -900.604513     -900.673828  0.061507 -6.790365  0.042866
   scf:    4     -900.604589     -900.604596     -900.673910  0.007310 -6.796127  0.024141
   scf:    5     -900.604457     -900.604557     -900.673870  0.009817 -6.809490  0.030648
   scf:    6     -900.604320     -900.604472     -900.673786  0.018611 -6.830148  0.085725
   scf:    7     -900.604663     -900.604606     -900.673921  0.030018 -6.798883  0.003091
   scf:    8     -900.604603     -900.604605     -900.673919  0.000375 -6.799861  0.005379
   scf:    9     -900.604606     -900.604606     -900.673921  0.000677 -6.800349  0.000114
   scf:   10     -900.604606     -900.604606     -900.673921  0.000007 -6.800351  0.000111

SCF Convergence by DM+H criterion
max |DM_out - DM_in|         :     0.0000066707
max |H_out - H_in|      (eV) :     0.0001114119
SCF cycle converged after 10 iterations

Using DM_out to compute the final energy and forces
No. of atoms with KB's overlaping orbs in proc 0. Max # of overlaps:       4      30

siesta: E_KS(eV) =             -900.6046

siesta: Atomic forces (eV/Ang):
----------------------------------------
   Tot   -0.000569   -0.000191   -0.000327
----------------------------------------
   Max    0.442753
   Res    0.177137    sqrt( Sum f_i^2 / 3N )
----------------------------------------
   Max    0.442753    constrained

Stress tensor Voigt[x,y,z,yz,xz,xy] (kbar):      -16.90       -0.10       -0.24       -0.17        0.03        0.02
(Free)E + p*V (eV/cell)     -897.0866
Target enthalpy (eV/cell)     -900.6739

siesta: Stress tensor (static) (eV/Ang**3):
        -0.000436   -0.000003    0.000007
        -0.000003    0.000007    0.000001
         0.000007    0.000001    0.000008

siesta: Pressure (static):          0.22485390  kBar

siesta: Stress tensor (total) (eV/Ang**3):
        -0.010547    0.000014    0.000018
         0.000014   -0.000063   -0.000104
         0.000018   -0.000104   -0.000153

siesta: Pressure (total):          5.74753491  kBar

siesta: Temp_ion =   13448.451 K

                     ====================================
                        Begin MD step =      5
                     ====================================

outcell: Unit cell vectors (Ang):
       10.000000    0.000000    0.000000
        0.000000   10.000000    0.000000
        0.000000    0.000000   10.000000

outcell: Cell vector modules (Ang)   :   10.000000   10.000000   10.000000
outcell: Cell angles (23,13,12) (deg):     90.0000     90.0000     90.0000
outcell: Cell volume (Ang**3)        :   1000.0000
Gamma-point calculation with multiply-connected orbital pairs
Gamma-point calculation with multiply-connected orbital pairs
Folding of H and S implicitly performed
Folding of H and S implicitly performed
<dSpData1D:S at geom step 5
  <sparsity:sparsity for geom step 5
    nrows_g=36 nrows=36 sparsity=.9414 nnzs=1220, refcount: 7>
  <dData1D:(new from dSpData1D) n=1220, refcount: 1>
refcount: 1>
new_DM -- step:     5
Re-using DM from previous geometries...
Number of DMs in history: 1
 DM extrapolation coefficients: 
1   1.00000
New DM after history re-use:
<dSpData2D:SpM extrapolated using coords
  <sparsity:sparsity for geom step 5
    nrows_g=36 nrows=36 sparsity=.9414 nnzs=1220, refcount: 9>
  <dData2D:(temp array for extrapolation) n=1220 m=1, refcount: 1>
refcount: 1>
Note: For starting DM, Qtot, Tr[D*S] =         14.00000000         13.98445693
No. of atoms with KB's overlaping orbs in proc 0. Max # of overlaps:       4      30
New grid distribution:   1
           1       1:   45    1:   45    1:   45

InitMesh: MESH =    90 x    90 x    90 =      729000
InitMesh: (bp) =    45 x    45 x    45 =       91125
InitMesh: Mesh cutoff (required, used) =   200.000   223.865 Ry
ExtMesh (bp) on 0 =   117 x   117 x   117 =     1601613
PhiOnMesh: Number of (b)points on node 0 =                91125
PhiOnMesh: nlist on node 0 =               451143

        iscf     Eharris(eV)        E_KS(eV)     FreeEng(eV)     dDmax    Ef(eV) dHmax(eV)
   scf:    1     -900.572833     -900.601574     -900.670889  0.346794 -6.681180  0.262046
   scf:    2     -900.597225     -900.600792     -900.670105  0.182034 -6.893683  0.300570
   scf:    3     -900.603353     -900.602389     -900.671703  0.081503 -6.797929  0.067328
   scf:    4     -900.602578     -900.602564     -900.671879  0.011222 -6.807572  0.030864
   scf:    5     -900.602377     -900.602503     -900.671816  0.015780 -6.829127  0.053950
   scf:    6     -900.602258     -900.602403     -900.671717  0.014903 -6.845306  0.097518
   scf:    7     -900.602640     -900.602577     -900.671891  0.033627 -6.810356  0.006606
   scf:    8     -900.602563     -900.602572     -900.671886  0.000924 -6.812185  0.011241
   scf:    9     -900.602578     -900.602577     -900.671892  0.001334 -6.813059  0.000180
   scf:   10     -900.602577     -900.602577     -900.671892  0.000016 -6.813064  0.000178

SCF Convergence by DM+H criterion
max |DM_out - DM_in|         :     0.0000160158
max |H_out - H_in|      (eV) :     0.0001775407
SCF cycle converged after 10 iterations

Using DM_out to compute the final energy and forces
No. of atoms with KB's overlaping orbs in proc 0. Max # of overlaps:       4      30

siesta: E_KS(eV) =             -900.6026

siesta: Atomic forces (eV/Ang):
----------------------------------------
   Tot    0.000433    0.000245    0.000699
----------------------------------------
   Max    0.667234
   Res    0.309463    sqrt( Sum f_i^2 / 3N )
----------------------------------------
   Max    0.667234    constrained

Stress tensor Voigt[x,y,z,yz,xz,xy] (kbar):      -15.92       -0.07       -0.18       -0.12        0.23        0.16
(Free)E + p*V (eV/cell)     -897.3062
Target enthalpy (eV/cell)     -900.6719

siesta: Stress tensor (static) (eV/Ang**3):
         0.000180    0.000091    0.000146
         0.000091    0.000025    0.000030
         0.000146    0.000030    0.000052

siesta: Pressure (static):         -0.13739247  kBar

siesta: Stress tensor (total) (eV/Ang**3):
        -0.009939    0.000099    0.000143
         0.000099   -0.000045   -0.000078
         0.000143   -0.000078   -0.000113

siesta: Pressure (total):          5.39256034  kBar

siesta: Temp_ion =   13444.161 K

                     ====================================
                        Begin MD step =      6
                     ====================================

outcell: Unit cell vectors (Ang):
       10.000000    0.000000    0.000000
        0.000000   10.000000    0.000000
        0.000000    0.000000   10.000000

outcell: Cell vector modules (Ang)   :   10.000000   10.000000   10.000000
outcell: Cell angles (23,13,12) (deg):     90.0000     90.0000     90.0000
outcell: Cell volume (Ang**3)        :   1000.0000
Gamma-point calculation with multiply-connected orbital pairs
Gamma-point calculation with multiply-connected orbital pairs
Folding of H and S implicitly performed
Folding of H and S implicitly performed
<dSpData1D:S at geom step 6
  <sparsity:sparsity for geom step 6
    nrows_g=36 nrows=36 sparsity=.9552 nnzs=1238, refcount: 7>
  <dData1D:(new from dSpData1D) n=1238, refcount: 1>
refcount: 1>
new_DM -- step:     6
Re-using DM from previous geometries...
Number of DMs in history: 1
 DM extrapolation coefficients: 
1   1.00000
New DM after history re-use:
<dSpData2D:SpM extrapolated using coords
  <sparsity:sparsity for geom step 6
    nrows_g=36 nrows=36 sparsity=.9552 nnzs=1238, refcount: 9>
  <dData2D:(temp array for extrapolation) n=1238 m=1, refcount: 1>
refcount: 1>
No. of atoms with KB's overlaping orbs in proc 0. Max # of overlaps:       4      30
New grid distribution:   1
           1       1:   45    1:   45    1:   45

InitMesh: MESH =    90 x    90 x    90 =      729000
InitMesh: (bp) =    45 x    45 x    45 =       91125
InitMesh: Mesh cutoff (required, used) =   200.000   223.865 Ry
ExtMesh (bp) on 0 =   117 x   117 x   117 =     1601613
PhiOnMesh: Number of (b)points on node 0 =                91125
PhiOnMesh: nlist on node 0 =               451119

        iscf     Eharris(eV)        E_KS(eV)     FreeEng(eV)     dDmax    Ef(eV) dHmax(eV)
   scf:    1     -900.605986     -900.597026     -900.666341  0.412701 -6.758168  0.140524
   scf:    2     -900.594863     -900.596524     -900.665833  0.110286 -6.869884  0.188028
   scf:    3     -900.597660     -900.597251     -900.666565  0.053603 -6.815416  0.051442
   scf:    4     -900.597306     -900.597327     -900.666641  0.010482 -6.824714  0.015085
   scf:    5     -900.597276     -900.597323     -900.666636  0.005952 -6.828615  0.013461
   scf:    6     -900.597207     -900.597283     -900.666597  0.013107 -6.841980  0.052679
   scf:    7     -900.597350     -900.597338     -900.666653  0.017216 -6.825470  0.006281
   scf:    8     -900.597339     -900.597339     -900.666653  0.001119 -6.827645  0.002314
   scf:    9     -900.597339     -900.597339     -900.666653  0.000275 -6.827494  0.000136

SCF Convergence by DM+H criterion
max |DM_out - DM_in|         :     0.0002751171
max |H_out - H_in|      (eV) :     0.0001357080
SCF cycle converged after 9 iterations

Using DM_out to compute the final energy and forces
No. of atoms with KB's overlaping orbs in proc 0. Max # of overlaps:       4      30

siesta: E_KS(eV) =             -900.5973

siesta: Atomic forces (eV/Ang):
----------------------------------------
   Tot   -0.000601    0.000120    0.000851
----------------------------------------
   Max    0.972205
   Res    0.436027    sqrt( Sum f_i^2 / 3N )
----------------------------------------
   Max    0.972205    constrained

Stress tensor Voigt[x,y,z,yz,xz,xy] (kbar):      -15.30       -0.02       -0.07       -0.05        0.44        0.30
(Free)E + p*V (eV/cell)     -897.4630
Target enthalpy (eV/cell)     -900.6667

siesta: Stress tensor (static) (eV/Ang**3):
         0.000581    0.000170    0.000262
         0.000170    0.000050    0.000068
         0.000262    0.000068    0.000109

siesta: Pressure (static):         -0.39537004  kBar

siesta: Stress tensor (total) (eV/Ang**3):
        -0.009552    0.000190    0.000278
         0.000190   -0.000015   -0.000032
         0.000278   -0.000032   -0.000043

siesta: Pressure (total):          5.13281865  kBar

siesta: Temp_ion =   13433.370 K

                     ====================================
                        Begin MD step =      7
                     ====================================

outcell: Unit cell vectors (Ang):
       10.000000    0.000000    0.000000
        0.000000   10.000000    0.000000
        0.000000    0.000000   10.000000

outcell: Cell vector modules (Ang)   :   10.000000   10.000000   10.000000
outcell: Cell angles (23,13,12) (deg):     90.0000     90.0000     90.0000
outcell: Cell volume (Ang**3)        :   1000.0000
Gamma-point calculation with multiply-connected orbital pairs
Gamma-point calculation with multiply-connected orbital pairs
Folding of H and S implicitly performed
Folding of H and S implicitly performed
<dSpData1D:S at geom step 7
  <sparsity:sparsity for geom step 7
    nrows_g=36 nrows=36 sparsity=.9784 nnzs=1268, refcount: 7>
  <dData1D:(new from dSpData1D) n=1268, refcount: 1>
refcount: 1>
new_DM -- step:     7
Re-using DM from previous geometries...
Number of DMs in history: 1
 DM extrapolation coefficients: 
1   1.00000
New DM after history re-use:
<dSpData2D:SpM extrapolated using coords
  <sparsity:sparsity for geom step 7
    nrows_g=36 nrows=36 sparsity=.9784 nnzs=1268, refcount: 9>
  <dData2D:(temp array for extrapolation) n=1268 m=1, refcount: 1>
refcount: 1>
No. of atoms with KB's overlaping orbs in proc 0. Max # of overlaps:       4      34
New grid distribution:   1
           1       1:   45    1:   45    1:   45

InitMesh: MESH =    90 x    90 x    90 =      729000
InitMesh: (bp) =    45 x    45 x    45 =       91125
InitMesh: Mesh cutoff (required, used) =   200.000   223.865 Ry
ExtMesh (bp) on 0 =   117 x   117 x   117 =     1601613
PhiOnMesh: Number of (b)points on node 0 =                91125
PhiOnMesh: nlist on node 0 =               451155

        iscf     Eharris(eV)        E_KS(eV)     FreeEng(eV)     dDmax    Ef(eV) dHmax(eV)
   scf:    1     -900.670372     -900.604804     -900.674118  0.430443 -6.881183  0.080915
   scf:    2     -900.603900     -900.604610     -900.673907  0.028835 -6.817224  0.086261
   scf:    3     -900.605100     -900.604918     -900.674229  0.012341 -6.844158  0.014753
   scf:    4     -900.604873     -900.604948     -900.674261  0.008626 -6.842781  0.011145
   scf:    5     -900.604956     -900.604964     -900.674279  0.004193 -6.842942  0.009427
   scf:    6     -900.604951     -900.604961     -900.674275  0.002220 -6.840187  0.009159
   scf:    7     -900.604963     -900.604966     -900.674280  0.003661 -6.843733  0.002769
   scf:    8     -900.604966     -900.604966     -900.674281  0.001228 -6.842622  0.000298
   scf:    9     -900.604966     -900.604966     -900.674281  0.000066 -6.842564  0.000136

SCF Convergence by DM+H criterion
max |DM_out - DM_in|         :     0.0000659139
max |H_out - H_in|      (eV) :     0.0001355189
SCF cycle converged after 9 iterations

Using DM_out to compute the final energy and forces
No. of atoms with KB's overlaping orbs in proc 0. Max # of overlaps:       4      34

siesta: E_KS(eV) =             -900.6050

siesta: Atomic forces (eV/Ang):
----------------------------------------
   Tot   -0.010871    0.000161    0.000407
----------------------------------------
   Max    0.870962
   Res    0.403356    sqrt( Sum f_i^2 / 3N )
----------------------------------------
   Max    0.870962    constrained

Stress tensor Voigt[x,y,z,yz,xz,xy] (kbar):      -15.16        0.02        0.02        0.01        0.52        0.36
(Free)E + p*V (eV/cell)     -897.5276
Target enthalpy (eV/cell)     -900.6743

siesta: Stress tensor (static) (eV/Ang**3):
         0.000702    0.000179    0.000272
         0.000179    0.000062    0.000087
         0.000272    0.000087    0.000138

siesta: Pressure (static):         -0.48217492  kBar

siesta: Stress tensor (total) (eV/Ang**3):
        -0.009465    0.000223    0.000325
         0.000223    0.000010    0.000006
         0.000325    0.000006    0.000015

siesta: Pressure (total):          5.04157630  kBar

siesta: Temp_ion =   13455.169 K

                     ====================================
                        Begin MD step =      8
                     ====================================

outcell: Unit cell vectors (Ang):
       10.000000    0.000000    0.000000
        0.000000   10.000000    0.000000
        0.000000    0.000000   10.000000

outcell: Cell vector modules (Ang)   :   10.000000   10.000000   10.000000
outcell: Cell angles (23,13,12) (deg):     90.0000     90.0000     90.0000
outcell: Cell volume (Ang**3)        :   1000.0000
Gamma-point calculation with multiply-connected orbital pairs
Gamma-point calculation with multiply-connected orbital pairs
Folding of H and S implicitly performed
Folding of H and S implicitly performed
<dSpData1D:S at geom step 8
  <sparsity:sparsity for geom step 8
    nrows_g=36 nrows=36 sparsity=.9784 nnzs=1268, refcount: 7>
  <dData1D:(new from dSpData1D) n=1268, refcount: 1>
refcount: 1>
new_DM -- step:     8
Re-using DM from previous geometries...
Number of DMs in history: 1
 DM extrapolation coefficients: 
1   1.00000
New DM after history re-use:
<dSpData2D:SpM extrapolated using coords
  <sparsity:sparsity for geom step 8
    nrows_g=36 nrows=36 sparsity=.9784 nnzs=1268, refcount: 9>
  <dData2D:(temp array for extrapolation) n=1268 m=1, refcount: 1>
refcount: 1>
No. of atoms with KB's overlaping orbs in proc 0. Max # of overlaps:       4      34
New grid distribution:   1
           1       1:   45    1:   45    1:   45

InitMesh: MESH =    90 x    90 x    90 =      729000
InitMesh: (bp) =    45 x    45 x    45 =       91125
InitMesh: Mesh cutoff (required, used) =   200.000   223.865 Ry
ExtMesh (bp) on 0 =   117 x   117 x   117 =     1601613
PhiOnMesh: Number of (b)points on node 0 =                91125
PhiOnMesh: nlist on node 0 =               451220

        iscf     Eharris(eV)        E_KS(eV)     FreeEng(eV)     dDmax    Ef(eV) dHmax(eV)
   scf:    1     -900.722223     -900.619156     -900.688470  0.397946 -6.990209  0.284079
   scf:    2     -900.609285     -900.616786     -900.686036  0.163718 -6.770714  0.382936
   scf:    3     -900.621864     -900.620024     -900.689331  0.079137 -6.875619  0.097986
   scf:    4     -900.619916     -900.620303     -900.689607  0.017132 -6.858956  0.031281
   scf:    5     -900.620426     -900.620419     -900.689733  0.008527 -6.862629  0.031910
   scf:    6     -900.620170     -900.620328     -900.689641  0.012935 -6.839949  0.066172
   scf:    7     -900.620445     -900.620427     -900.689741  0.019122 -6.859847  0.006725
   scf:    8     -900.620421     -900.620424     -900.689739  0.001135 -6.858551  0.007995
   scf:    9     -900.620428     -900.620428     -900.689742  0.001486 -6.857339  0.000286
   scf:   10     -900.620428     -900.620428     -900.689742  0.000057 -6.857306  0.000253

SCF Convergence by DM+H criterion
max |DM_out - DM_in|         :     0.0000568530
max |H_out - H_in|      (eV) :     0.0002527196
SCF cycle converged after 10 iterations

Using DM_out to compute the final energy and forces
No. of atoms with KB's overlaping orbs in proc 0. Max # of overlaps:       4      34

siesta: E_KS(eV) =             -900.6204

siesta: Atomic forces (eV/Ang):
----------------------------------------
   Tot    0.007488    0.000058    0.000723
----------------------------------------
   Max    0.433634
   Res    0.230430    sqrt( Sum f_i^2 / 3N )
----------------------------------------
   Max    0.433634    constrained

Stress tensor Voigt[x,y,z,yz,xz,xy] (kbar):      -15.58        0.01        0.01        0.00        0.38        0.27
(Free)E + p*V (eV/cell)     -897.4526
Target enthalpy (eV/cell)     -900.6897

siesta: Stress tensor (static) (eV/Ang**3):
         0.000507    0.000105    0.000153
         0.000105    0.000044    0.000059
         0.000153    0.000059    0.000097

siesta: Pressure (static):         -0.34611978  kBar

siesta: Stress tensor (total) (eV/Ang**3):
        -0.009727    0.000169    0.000236
         0.000169    0.000007    0.000002
         0.000236    0.000002    0.000009

siesta: Pressure (total):          5.18659540  kBar

siesta: Temp_ion =   13491.550 K

                     ====================================
                        Begin MD step =      9
                     ====================================

outcell: Unit cell vectors (Ang):
       10.000000    0.000000    0.000000
        0.000000   10.000000    0.000000
        0.000000    0.000000   10.000000

outcell: Cell vector modules (Ang)   :   10.000000   10.000000   10.000000
outcell: Cell angles (23,13,12) (deg):     90.0000     90.0000     90.0000
outcell: Cell volume (Ang**3)        :   1000.0000
Gamma-point calculation with multiply-connected orbital pairs
Gamma-point calculation with multiply-connected orbital pairs
Folding of H and S implicitly performed
Folding of H and S implicitly performed
<dSpData1D:S at geom step 9
  <sparsity:sparsity for geom step 9
    nrows_g=36 nrows=36 sparsity=.9830 nnzs=1274, refcount: 7>
  <dData1D:(new from dSpData1D) n=1274, refcount: 1>
refcount: 1>
new_DM -- step:     9
Re-using DM from previous geometries...
Number of DMs in history: 1
 DM extrapolation coefficients: 
1   1.00000
New DM after history re-use:
<dSpData2D:SpM extrapolated using coords
  <sparsity:sparsity for geom step 9
    nrows_g=36 nrows=36 sparsity=.9830 nnzs=1274, refcount: 9>
  <dData2D:(temp array for extrapolation) n=1274 m=1, refcount: 1>
refcount: 1>
Note: For starting DM, Qtot, Tr[D*S] =         14.00000000         14.01637412
No. of atoms with KB's overlaping orbs in proc 0. Max # of overlaps:       4      34
New grid distribution:   1
           1       1:   45    1:   45    1:   45

InitMesh: MESH =    90 x    90 x    90 =      729000
InitMesh: (bp) =    45 x    45 x    45 =       91125
InitMesh: Mesh cutoff (required, used) =   200.000   223.865 Ry
ExtMesh (bp) on 0 =   117 x   117 x   117 =     1601613
PhiOnMesh: Number of (b)points on node 0 =                91125
PhiOnMesh: nlist on node 0 =               451251

        iscf     Eharris(eV)        E_KS(eV)     FreeEng(eV)     dDmax    Ef(eV) dHmax(eV)
   scf:    1     -900.708204     -900.617122     -900.686436  0.083033 -7.031945  0.354341
   scf:    2     -900.598287     -900.612303     -900.681539  0.217628 -6.763883  0.518853
   scf:    3     -900.621658     -900.618368     -900.687674  0.112075 -6.900333  0.143260
   scf:    4     -900.618454     -900.618889     -900.688191  0.023633 -6.872753  0.033304
   scf:    5     -900.619068     -900.619025     -900.688340  0.008615 -6.877552  0.034491
   scf:    6     -900.618651     -900.618890     -900.688203  0.017497 -6.851208  0.083089
   scf:    7     -900.619076     -900.619042     -900.688357  0.022360 -6.873393  0.005798
   scf:    8     -900.619031     -900.619038     -900.688352  0.001052 -6.872314  0.009871
   scf:    9     -900.619043     -900.619043     -900.688357  0.001863 -6.871071  0.000297
   scf:   10     -900.619043     -900.619043     -900.688357  0.000052 -6.871052  0.000286

SCF Convergence by DM+H criterion
max |DM_out - DM_in|         :     0.0000516703
max |H_out - H_in|      (eV) :     0.0002863695
SCF cycle converged after 10 iterations

Using DM_out to compute the final energy and forces
No. of atoms with KB's overlaping orbs in proc 0. Max # of overlaps:       4      34

siesta: E_KS(eV) =             -900.6190

siesta: Atomic forces (eV/Ang):
----------------------------------------
   Tot   -0.039477    0.000086    0.000493
----------------------------------------
   Max    0.388274
   Res    0.159712    sqrt( Sum f_i^2 / 3N )
----------------------------------------
   Max    0.388274    constrained

Stress tensor Voigt[x,y,z,yz,xz,xy] (kbar):      -16.04       -0.05       -0.13       -0.10        0.08        0.08
(Free)E + p*V (eV/cell)     -897.3128
Target enthalpy (eV/cell)     -900.6884

siesta: Stress tensor (static) (eV/Ang**3):
         0.000289   -0.000024   -0.000045
        -0.000024   -0.000006   -0.000018
        -0.000045   -0.000018   -0.000022

siesta: Pressure (static):         -0.13933980  kBar

siesta: Stress tensor (total) (eV/Ang**3):
        -0.010009    0.000047    0.000047
         0.000047   -0.000033   -0.000060
         0.000047   -0.000060   -0.000084

siesta: Pressure (total):          5.40833518  kBar

siesta: Temp_ion =   13495.080 K

                     ====================================
                        Begin MD step =     10
                     ====================================

outcell: Unit cell vectors (Ang):
       10.000000    0.000000    0.000000
        0.000000   10.000000    0.000000
        0.000000    0.000000   10.000000

outcell: Cell vector modules (Ang)   :   10.000000   10.000000   10.000000
outcell: Cell angles (23,13,12) (deg):     90.0000     90.0000     90.0000
outcell: Cell volume (Ang**3)        :   1000.0000
Gamma-point calculation with multiply-connected orbital pairs
Gamma-point calculation with multiply-connected orbital pairs
Folding of H and S implicitly performed
Folding of H and S implicitly performed
<dSpData1D:S at geom step 10
  <sparsity:sparsity for geom step 10
    nrows_g=36 nrows=36 sparsity=.9877 nnzs=1280, refcount: 7>
  <dData1D:(new from dSpData1D) n=1280, refcount: 1>
refcount: 1>
new_DM -- step:    10
Re-using DM from previous geometries...
Number of DMs in history: 1
 DM extrapolation coefficients: 
1   1.00000
New DM after history re-use:
<dSpData2D:SpM extrapolated using coords
  <sparsity:sparsity for geom step 10
    nrows_g=36 nrows=36 sparsity=.9877 nnzs=1280, refcount: 9>
  <dData2D:(temp array for extrapolation) n=1280 m=1, refcount: 1>
refcount: 1>
No. of atoms with KB's overlaping orbs in proc 0. Max # of overlaps:       4      34
New grid distribution:   1
           1       1:   45    1:   45    1:   45

InitMesh: MESH =    90 x    90 x    90 =      729000
InitMesh: (bp) =    45 x    45 x    45 =       91125
InitMesh: Mesh cutoff (required, used) =   200.000   223.865 Ry
ExtMesh (bp) on 0 =   117 x   117 x   117 =     1601613
PhiOnMesh: Number of (b)points on node 0 =                91125
PhiOnMesh: nlist on node 0 =               451274

        iscf     Eharris(eV)        E_KS(eV)     FreeEng(eV)     dDmax    Ef(eV) dHmax(eV)
   scf:    1     -900.614245     -900.592515     -900.661823  0.671918 -6.974759  0.207694
   scf:    2     -900.565106     -900.584312     -900.653030  0.129522 -6.818256  0.312411
   scf:    3     -900.596350     -900.592328     -900.661584  0.067943 -6.899637  0.085645
   scf:    4     -900.591313     -900.592910     -900.662191  0.038389 -6.886286  0.017764
   scf:    5     -900.592923     -900.593214     -900.662527  0.020426 -6.883357  0.012126
   scf:    6     -900.593266     -900.593249     -900.662563  0.003458 -6.883942  0.012623
   scf:    7     -900.593258     -900.593256     -900.662570  0.003272 -6.882927  0.000727
   scf:    8     -900.593256     -900.593256     -900.662570  0.000060 -6.882958  0.000704

SCF Convergence by DM+H criterion
max |DM_out - DM_in|         :     0.0000602800
max |H_out - H_in|      (eV) :     0.0007035215
SCF cycle converged after 8 iterations

Using DM_out to compute the final energy and forces
No. of atoms with KB's overlaping orbs in proc 0. Max # of overlaps:       4      34

siesta: E_KS(eV) =             -900.5933

siesta: Atomic forces (eV/Ang):
----------------------------------------
   Tot   -0.000717    0.000117    0.000305
----------------------------------------
   Max    0.552645
   Res    0.306976    sqrt( Sum f_i^2 / 3N )
----------------------------------------
   Max    0.552645    constrained

Stress tensor Voigt[x,y,z,yz,xz,xy] (kbar):      -16.60       -0.13       -0.31       -0.21       -0.12       -0.05
(Free)E + p*V (eV/cell)     -897.1163
Target enthalpy (eV/cell)     -900.6626

siesta: Stress tensor (static) (eV/Ang**3):
        -0.000054   -0.000102   -0.000168
        -0.000102   -0.000056   -0.000095
        -0.000168   -0.000095   -0.000138

siesta: Pressure (static):          0.13268583  kBar

siesta: Stress tensor (total) (eV/Ang**3):
        -0.010364   -0.000031   -0.000074
        -0.000031   -0.000081   -0.000132
        -0.000074   -0.000132   -0.000194

siesta: Pressure (total):          5.68181209  kBar

siesta: Temp_ion =   13441.671 K

                     ====================================
                        Begin MD step =     11
                     ====================================

outcell: Unit cell vectors (Ang):
       10.000000    0.000000    0.000000
        0.000000   10.000000    0.000000
        0.000000    0.000000   10.000000

outcell: Cell vector modules (Ang)   :   10.000000   10.000000   10.000000
outcell: Cell angles (23,13,12) (deg):     90.0000     90.0000     90.0000
outcell: Cell volume (Ang**3)        :   1000.0000
Gamma-point calculation with multiply-connected orbital pairs
Gamma-point calculation with multiply-connected orbital pairs
Folding of H and S implicitly performed
Folding of H and S implicitly performed
<dSpData1D:S at geom step 11
  <sparsity:sparsity for geom step 11
    nrows_g=36 nrows=36 sparsity=.9877 nnzs=1280, refcount: 7>
  <dData1D:(new from dSpData1D) n=1280, refcount: 1>
refcount: 1>
new_DM -- step:    11
Re-using DM from previous geometries...
Number of DMs in history: 1
 DM extrapolation coefficients: 
1   1.00000
New DM after history re-use:
<dSpData2D:SpM extrapolated using coords
  <sparsity:sparsity for geom step 11
    nrows_g=36 nrows=36 sparsity=.9877 nnzs=1280, refcount: 9>
  <dData2D:(temp array for extrapolation) n=1280 m=1, refcount: 1>
refcount: 1>
No. of atoms with KB's overlaping orbs in proc 0. Max # of overlaps:       4      34
New grid distribution:   1
           1       1:   45    1:   45    1:   45

InitMesh: MESH =    90 x    90 x    90 =      729000
InitMesh: (bp) =    45 x    45 x    45 =       91125
InitMesh: Mesh cutoff (required, used) =   200.000   223.865 Ry
ExtMesh (bp) on 0 =   117 x   117 x   117 =     1601613
PhiOnMesh: Number of (b)points on node 0 =                91125
PhiOnMesh: nlist on node 0 =               451255

        iscf     Eharris(eV)        E_KS(eV)     FreeEng(eV)     dDmax    Ef(eV) dHmax(eV)
   scf:    1     -900.458170     -900.549317     -900.618616  0.898329 -6.856370  0.120518
   scf:    2     -900.496870     -900.532982     -900.601175  0.106875 -6.914027  0.305562
   scf:    3     -900.553288     -900.549360     -900.618661  0.085435 -6.870842  0.074156
   scf:    4     -900.547508     -900.549152     -900.618410  0.032087 -6.886591  0.028945
   scf:    5     -900.549568     -900.549663     -900.618978  0.020793 -6.885751  0.030573
   scf:    6     -900.549605     -900.549654     -900.618965  0.009775 -6.895354  0.011538
   scf:    7     -900.549673     -900.549674     -900.618988  0.004153 -6.891443  0.001220
   scf:    8     -900.549674     -900.549674     -900.618988  0.000104 -6.891557  0.001139
   scf:    9     -900.549674     -900.549674     -900.618988  0.000330 -6.891662  0.000724
   scf:   10     -900.549674     -900.549674     -900.618988  0.000037 -6.891684  0.000586

SCF Convergence by DM+H criterion
max |DM_out - DM_in|         :     0.0000367275
max |H_out - H_in|      (eV) :     0.0005863172
SCF cycle converged after 10 iterations

Using DM_out to compute the final energy and forces
No. of atoms with KB's overlaping orbs in proc 0. Max # of overlaps:       4      34

siesta: E_KS(eV) =             -900.5497

siesta: Atomic forces (eV/Ang):
----------------------------------------
   Tot   -0.006475   -0.000185    0.000339
----------------------------------------
   Max    0.745033
   Res    0.300317    sqrt( Sum f_i^2 / 3N )
----------------------------------------
   Max    0.745033    constrained

Stress tensor Voigt[x,y,z,yz,xz,xy] (kbar):      -16.88       -0.12       -0.30       -0.20       -0.01        0.02
(Free)E + p*V (eV/cell)     -897.0205
Target enthalpy (eV/cell)     -900.6190

siesta: Stress tensor (static) (eV/Ang**3):
        -0.000287   -0.000060   -0.000104
        -0.000060   -0.000046   -0.000078
        -0.000104   -0.000078   -0.000113

siesta: Pressure (static):          0.23831415  kBar

siesta: Stress tensor (total) (eV/Ang**3):
        -0.010535    0.000012   -0.000009
         0.000012   -0.000076   -0.000125
        -0.000009   -0.000125   -0.000184

siesta: Pressure (total):          5.76547883  kBar

siesta: Temp_ion =   13322.020 K

                     ====================================
                        Begin MD step =     12
                     ====================================

outcell: Unit cell vectors (Ang):
       10.000000    0.000000    0.000000
        0.000000   10.000000    0.000000
        0.000000    0.000000   10.000000

outcell: Cell vector modules (Ang)   :   10.000000   10.000000   10.000000
outcell: Cell angles (23,13,12) (deg):     90.0000     90.0000     90.0000
outcell: Cell volume (Ang**3)        :   1000.0000
Gamma-point calculation with multiply-connected orbital pairs
Gamma-point calculation with multiply-connected orbital pairs
Folding of H and S implicitly performed
Folding of H and S implicitly performed
<dSpData1D:S at geom step 12
  <sparsity:sparsity for geom step 12
    nrows_g=36 nrows=36 sparsity=.9954 nnzs=1290, refcount: 7>
  <dData1D:(new from dSpData1D) n=1290, refcount: 1>
refcount: 1>
new_DM -- step:    12
Re-using DM from previous geometries...
Number of DMs in history: 1
 DM extrapolation coefficients: 
1   1.00000
New DM after history re-use:
<dSpData2D:SpM extrapolated using coords
  <sparsity:sparsity for geom step 12
    nrows_g=36 nrows=36 sparsity=.9954 nnzs=1290, refcount: 9>
  <dData2D:(temp array for extrapolation) n=1290 m=1, refcount: 1>
refcount: 1>
Note: For starting DM, Qtot, Tr[D*S] =         14.00000000         13.97781891
No. of atoms with KB's overlaping orbs in proc 0. Max # of overlaps:       4      35
New grid distribution:   1
           1       1:   45    1:   45    1:   45

InitMesh: MESH =    90 x    90 x    90 =      729000
InitMesh: (bp) =    45 x    45 x    45 =       91125
InitMesh: Mesh cutoff (required, used) =   200.000   223.865 Ry
ExtMesh (bp) on 0 =   117 x   117 x   117 =     1601613
PhiOnMesh: Number of (b)points on node 0 =                91125
PhiOnMesh: nlist on node 0 =               451161

        iscf     Eharris(eV)        E_KS(eV)     FreeEng(eV)     dDmax    Ef(eV) dHmax(eV)
   scf:    1     -900.202151     -900.439079     -900.508276  1.114594 -6.755895  0.489961
   scf:    2     -899.864349     -900.261014     -900.321278  0.280726 -7.006149  1.492139
   scf:    3     -900.484147     -900.441741     -900.510953  0.226408 -6.815071  0.253098
   scf:    4     -900.380824     -900.426635     -900.494222  0.134761 -6.916027  0.122456
   scf:    5     -900.421278     -900.424002     -900.491344  0.007338 -6.919973  0.135191
   scf:    6     -900.446537     -900.444346     -900.513642  0.104227 -6.907621  0.034477
   scf:    7     -900.441058     -900.443448     -900.512711  0.029870 -6.913359  0.047871
   scf:    8     -900.444044     -900.444408     -900.513710  0.027605 -6.901237  0.004353
   scf:    9     -900.444437     -900.444424     -900.513730  0.001380 -6.901317  0.003320
   scf:   10     -900.444434     -900.444437     -900.513748  0.002685 -6.901929  0.001553
   scf:   11     -900.444437     -900.444437     -900.513748  0.000121 -6.901986  0.001398
   scf:   12     -900.444437     -900.444437     -900.513748  0.000551 -6.902416  0.000262
   scf:   13     -900.444437     -900.444437     -900.513748  0.000015 -6.902434  0.000241

SCF Convergence by DM+H criterion
max |DM_out - DM_in|         :     0.0000148461
max |H_out - H_in|      (eV) :     0.0002412942
SCF cycle converged after 13 iterations

Using DM_out to compute the final energy and forces
No. of atoms with KB's overlaping orbs in proc 0. Max # of overlaps:       4      35

siesta: E_KS(eV) =             -900.4444

siesta: Atomic forces (eV/Ang):
----------------------------------------
   Tot    0.002242   -0.000342   -0.000221
----------------------------------------
   Max    1.069212
   Res    0.375083    sqrt( Sum f_i^2 / 3N )
----------------------------------------
   Max    1.069212    constrained

Stress tensor Voigt[x,y,z,yz,xz,xy] (kbar):      -17.97       -0.00       -0.01       -0.02        0.31        0.23
(Free)E + p*V (eV/cell)     -896.7721
Target enthalpy (eV/cell)     -900.5137

siesta: Stress tensor (static) (eV/Ang**3):
        -0.001093    0.000071    0.000099
         0.000071    0.000040    0.000052
         0.000099    0.000052    0.000086

siesta: Pressure (static):          0.51684991  kBar

siesta: Stress tensor (total) (eV/Ang**3):
        -0.011215    0.000142    0.000192
         0.000142   -0.000001   -0.000010
         0.000192   -0.000010   -0.000009

siesta: Pressure (total):          5.99481476  kBar

siesta: Temp_ion =   13034.851 K

                     ====================================
                        Begin MD step =     13
                     ====================================

outcell: Unit cell vectors (Ang):
       10.000000    0.000000    0.000000
        0.000000   10.000000    0.000000
        0.000000    0.000000   10.000000

outcell: Cell vector modules (Ang)   :   10.000000   10.000000   10.000000
outcell: Cell angles (23,13,12) (deg):     90.0000     90.0000     90.0000
outcell: Cell volume (Ang**3)        :   1000.0000
Gamma-point calculation with multiply-connected orbital pairs
Gamma-point calculation with multiply-connected orbital pairs
Folding of H and S implicitly performed
Folding of H and S implicitly performed
<dSpData1D:S at geom step 13
  <sparsity:sparsity for geom step 13
    nrows_g=36 nrows=36 sparsity=.9954 nnzs=1290, refcount: 7>
  <dData1D:(new from dSpData1D) n=1290, refcount: 1>
refcount: 1>
new_DM -- step:    13
Re-using DM from previous geometries...
Number of DMs in history: 1
 DM extrapolation coefficients: 
1   1.00000
New DM after history re-use:
<dSpData2D:SpM extrapolated using coords
  <sparsity:sparsity for geom step 13
    nrows_g=36 nrows=36 sparsity=.9954 nnzs=1290, refcount: 9>
  <dData2D:(temp array for extrapolation) n=1290 m=1, refcount: 1>
refcount: 1>
Note: For starting DM, Qtot, Tr[D*S] =         14.00000000         13.96460293
No. of atoms with KB's overlaping orbs in proc 0. Max # of overlaps:       4      35
New grid distribution:   1
           1       1:   45    1:   45    1:   45

InitMesh: MESH =    90 x    90 x    90 =      729000
InitMesh: (bp) =    45 x    45 x    45 =       91125
InitMesh: Mesh cutoff (required, used) =   200.000   223.865 Ry
ExtMesh (bp) on 0 =   117 x   117 x   117 =     1601613
PhiOnMesh: Number of (b)points on node 0 =                91125
PhiOnMesh: nlist on node 0 =               451197

        iscf     Eharris(eV)        E_KS(eV)     FreeEng(eV)     dDmax    Ef(eV) dHmax(eV)
   scf:    1     -899.755315     -900.182063     -900.250768  1.311422 -6.718345  0.801234
   scf:    2     -898.186089     -899.566772     -899.602725  0.566288 -7.069901  2.733000
   scf:    3     -900.335693     -900.191410     -900.260314  0.445522 -6.794833  0.351936
   scf:    4     -900.199769     -900.198955     -900.268252  0.066697 -6.820783  0.260003
   scf:    5     -899.916399     -900.105453     -900.165272  0.251189 -6.949932  0.254600
   scf:    6     -900.215345     -900.168917     -900.234950  0.106286 -6.923178  0.146694
   scf:    7     -900.105348     -900.183793     -900.251955  0.248580 -6.933456  0.104778
   scf:    8     -900.102228     -900.179835     -900.246938  0.220263 -6.927932  0.118150
   scf:    9     -900.199219     -900.200328     -900.269632  0.119837 -6.916303  0.003736
   scf:   10     -900.199591     -900.200133     -900.269373  0.015875 -6.916874  0.013094
   scf:   11     -900.200328     -900.200346     -900.269644  0.012443 -6.917670  0.002302
   scf:   12     -900.200344     -900.200345     -900.269644  0.000494 -6.917791  0.002296
   scf:   13     -900.200345     -900.200345     -900.269645  0.001045 -6.918678  0.000727
   scf:   14     -900.200347     -900.200347     -900.269644  0.000721 -6.918446  0.001034
   scf:   15     -900.200344     -900.200345     -900.269645  0.000568 -6.918706  0.000375
   scf:   16     -900.200345     -900.200345     -900.269645  0.000085 -6.918806  0.000226

SCF Convergence by DM+H criterion
max |DM_out - DM_in|         :     0.0000845569
max |H_out - H_in|      (eV) :     0.0002262369
SCF cycle converged after 16 iterations

Using DM_out to compute the final energy and forces
No. of atoms with KB's overlaping orbs in proc 0. Max # of overlaps:       4      35

siesta: E_KS(eV) =             -900.2003

siesta: Atomic forces (eV/Ang):
----------------------------------------
   Tot    0.042690    0.000045    0.000470
----------------------------------------
   Max    1.600808
   Res    0.672074    sqrt( Sum f_i^2 / 3N )
----------------------------------------
   Max    1.600808    constrained

Stress tensor Voigt[x,y,z,yz,xz,xy] (kbar):      -20.59        0.16        0.36        0.23        0.59        0.41
(Free)E + p*V (eV/cell)     -896.0934
Target enthalpy (eV/cell)     -900.2696

siesta: Stress tensor (static) (eV/Ang**3):
        -0.002956    0.000187    0.000279
         0.000187    0.000140    0.000206
         0.000279    0.000206    0.000322

siesta: Pressure (static):          1.33123598  kBar

siesta: Stress tensor (total) (eV/Ang**3):
        -0.012850    0.000255    0.000369
         0.000255    0.000098    0.000141
         0.000369    0.000141    0.000223

siesta: Pressure (total):          6.69111794  kBar

siesta: Temp_ion =   12375.550 K

                     ====================================
                        Begin MD step =     14
                     ====================================

outcell: Unit cell vectors (Ang):
       10.000000    0.000000    0.000000
        0.000000   10.000000    0.000000
        0.000000    0.000000   10.000000

outcell: Cell vector modules (Ang)   :   10.000000   10.000000   10.000000
outcell: Cell angles (23,13,12) (deg):     90.0000     90.0000     90.0000
outcell: Cell volume (Ang**3)        :   1000.0000
<dSpData1D:S at geom step 14
  <sparsity:sparsity for geom step 14
    nrows_g=36 nrows=36 sparsity=1.0000 nnzs=1296, refcount: 7>
  <dData1D:(new from dSpData1D) n=1296, refcount: 1>
refcount: 1>
new_DM -- step:    14
Re-using DM from previous geometries...
Number of DMs in history: 1
 DM extrapolation coefficients: 
1   1.00000
New DM after history re-use:
<dSpData2D:SpM extrapolated using coords
  <sparsity:sparsity for geom step 14
    nrows_g=36 nrows=36 sparsity=1.0000 nnzs=1296, refcount: 9>
  <dData2D:(temp array for extrapolation) n=1296 m=1, refcount: 1>
refcount: 1>
Note: For starting DM, Qtot, Tr[D*S] =         14.00000000         13.95280336
No. of atoms with KB's overlaping orbs in proc 0. Max # of overlaps:       4      36
New grid distribution:   1
           1       1:   45    1:   45    1:   45

InitMesh: MESH =    90 x    90 x    90 =      729000
InitMesh: (bp) =    45 x    45 x    45 =       91125
InitMesh: Mesh cutoff (required, used) =   200.000   223.865 Ry
ExtMesh (bp) on 0 =   117 x   117 x   117 =     1601613
PhiOnMesh: Number of (b)points on node 0 =                91125
PhiOnMesh: nlist on node 0 =               451201

        iscf     Eharris(eV)        E_KS(eV)     FreeEng(eV)     dDmax    Ef(eV) dHmax(eV)
   scf:    1     -898.958661     -899.688851     -899.755539  0.965488 -6.733830  1.103034
   scf:    2     -895.632138     -898.465985     -898.474371  0.780700 -7.118891  4.200290
   scf:    3     -900.031388     -899.710640     -899.778464  0.545718 -6.815522  0.370490
   scf:    4     -899.717745     -899.714260     -899.782342  0.009489 -6.816981  0.363462
   scf:    5     -898.567524     -899.401915     -899.432532  0.595610 -6.990316  0.496094
   scf:    6     -899.636782     -899.526371     -899.572245  0.097648 -6.954236  0.389515
   scf:    7     -897.382905     -899.174793     -899.183914  0.989562 -6.952035  0.662546
   scf:    8     -899.157624     -899.166224     -899.173797  0.004655 -6.950498  0.672586
   scf:    9     -899.093208     -899.129969     -899.130182  0.018657 -6.935629  0.795864
   scf:   10     -899.128872     -899.129422     -899.129557  0.002786 -6.930880  0.809146
   scf:   11     -899.123242     -899.126340     -899.126351  0.015430 -6.913786  0.879917
   scf:   12     -899.156070     -899.141266     -899.143535  0.022421 -6.911436  0.722702
   scf:   13     -897.107225     -899.219251     -899.219266  1.208706 -6.944597  0.825866
   scf:   14     -899.875147     -899.613668     -899.669229  0.298697 -6.894405  0.318650
   scf:   15     -899.038734     -899.594234     -899.652230  0.597382 -6.921267  0.317564
   scf:   16     -899.768679     -899.736212     -899.805494  0.270101 -6.918457  0.067238
   scf:   17     -899.051553     -899.492599     -899.541070  0.365445 -6.917106  0.415791
   scf:   18     -899.599555     -899.547804     -899.601566  0.048336 -6.917207  0.365862
   scf:   19     -899.429994     -899.695884     -899.760107  0.527441 -6.919498  0.173714
   scf:   20     -899.626606     -899.720090     -899.788406  0.278933 -6.921220  0.111348
   scf:   21     -899.743737     -899.734472     -899.803682  0.057274 -6.922954  0.062332
   scf:   22     -899.729707     -899.732210     -899.801304  0.012589 -6.919603  0.074791
   scf:   23     -899.697776     -899.717192     -899.785304  0.054112 -6.926651  0.121076
   scf:   24     -899.735854     -899.738614     -899.807791  0.126797 -6.939233  0.015088
   scf:   25     -899.738592     -899.738681     -899.807931  0.010159 -6.939863  0.014370
   scf:   26     -899.738706     -899.738698     -899.807935  0.003484 -6.944407  0.010336
   scf:   27     -899.738473     -899.738619     -899.807890  0.006966 -6.936109  0.017303
   scf:   28     -899.738717     -899.738685     -899.807931  0.004376 -6.944119  0.007150
   scf:   29     -899.738685     -899.738685     -899.807934  0.000758 -6.944160  0.004830
   scf:   30     -899.738697     -899.738691     -899.807938  0.000658 -6.945185  0.005597
   scf:   31     -899.738678     -899.738687     -899.807939  0.001879 -6.945889  0.002039
   scf:   32     -899.738691     -899.738689     -899.807940  0.000262 -6.945918  0.002032
   scf:   33     -899.738699     -899.738694     -899.807941  0.000745 -6.945787  0.001985
   scf:   34     -899.738697     -899.738696     -899.807941  0.000291 -6.945634  0.001599
   scf:   35     -899.738699     -899.738698     -899.807942  0.000787 -6.946018  0.000582
   scf:   36     -899.738697     -899.738697     -899.807942  0.000006 -6.946023  0.000551

SCF Convergence by DM+H criterion
max |DM_out - DM_in|         :     0.0000057771
max |H_out - H_in|      (eV) :     0.0005508900
SCF cycle converged after 36 iterations

Using DM_out to compute the final energy and forces
No. of atoms with KB's overlaping orbs in proc 0. Max # of overlaps:       4      36

siesta: E_KS(eV) =             -899.7387

siesta: Atomic forces (eV/Ang):
----------------------------------------
   Tot   -0.070598    0.001833    0.002476
----------------------------------------
   Max    2.467238
   Res    1.045994    sqrt( Sum f_i^2 / 3N )
----------------------------------------
   Max    2.467238    constrained

Stress tensor Voigt[x,y,z,yz,xz,xy] (kbar):      -24.31        0.24        0.55        0.35        0.65        0.43
(Free)E + p*V (eV/cell)     -894.9126
Target enthalpy (eV/cell)     -899.8079

siesta: Stress tensor (static) (eV/Ang**3):
        -0.005746    0.000206    0.000323
         0.000206    0.000177    0.000264
         0.000323    0.000264    0.000411

siesta: Pressure (static):          2.75456494  kBar

siesta: Stress tensor (total) (eV/Ang**3):
[...]
   scf:   13     -897.550355     -897.475835     -897.481119  0.232406 -6.547155  0.906312
   scf:   14     -896.275390     -897.160745     -897.191781  0.846085 -6.592408  2.920717
   scf:   15     -897.484002     -897.507794     -897.522003  0.782428 -6.605253  0.305020
   scf:   16     -897.415336     -897.479234     -897.500367  0.223793 -6.609576  0.789867
   scf:   17     -897.024471     -897.298084     -897.332896  0.358105 -6.600395  2.216106
   scf:   18     -897.302115     -897.486723     -897.500899  0.762765 -6.603755  0.854006
   scf:   19     -897.516825     -897.510551     -897.530387  0.154212 -6.603471  0.198788
   scf:   20     -897.461053     -897.495926     -897.521472  0.161778 -6.610657  0.499206
   scf:   21     -897.515699     -897.508426     -897.531269  0.090303 -6.612080  0.145177
   scf:   22     -897.511552     -897.510284     -897.532150  0.028179 -6.611313  0.028399
   scf:   23     -897.510363     -897.511784     -897.530102  0.056629 -6.611790  0.228680
   scf:   24     -897.510606     -897.512153     -897.532427  0.049672 -6.612851  0.019973
   scf:   25     -897.511833     -897.512001     -897.532441  0.004903 -6.612670  0.006429
   scf:   26     -897.510479     -897.511289     -897.532360  0.012564 -6.610511  0.050132
   scf:   27     -897.512264     -897.511838     -897.532456  0.013566 -6.610785  0.005857
   scf:   28     -897.511688     -897.511764     -897.532459  0.001415 -6.610800  0.001621
   scf:   29     -897.511582     -897.511674     -897.532459  0.001053 -6.610701  0.004787
   scf:   30     -897.511535     -897.511605     -897.532460  0.001207 -6.610583  0.000760
   scf:   31     -897.511591     -897.511598     -897.532461  0.000622 -6.610615  0.000637
   scf:   32     -897.511602     -897.511600     -897.532461  0.000055 -6.610632  0.000604

SCF Convergence by DM+H criterion
max |DM_out - DM_in|         :     0.0000545280
max |H_out - H_in|      (eV) :     0.0006038232
SCF cycle converged after 32 iterations

Using DM_out to compute the final energy and forces
No. of atoms with KB's overlaping orbs in proc 0. Max # of overlaps:       4      36

siesta: E_KS(eV) =             -897.5116

siesta: Atomic forces (eV/Ang):
----------------------------------------
   Tot   -0.005581    0.007352    0.006838
----------------------------------------
   Max    2.881793
   Res    1.423944    sqrt( Sum f_i^2 / 3N )
----------------------------------------
   Max    2.881793    constrained

Stress tensor Voigt[x,y,z,yz,xz,xy] (kbar):        2.89        7.75        0.29        2.14        2.59        6.15
(Free)E + p*V (eV/cell)     -899.8061
Target enthalpy (eV/cell)     -897.5325

siesta: Stress tensor (static) (eV/Ang**3):
         0.004579    0.004246    0.000959
         0.004246    0.005277    0.001759
         0.000959    0.001760    0.001355

siesta: Pressure (static):         -5.98743978  kBar

siesta: Stress tensor (total) (eV/Ang**3):
         0.001805    0.003837    0.001616
         0.003837    0.004834    0.001336
         0.001617    0.001337    0.000181

siesta: Pressure (total):         -3.64277990  kBar

siesta: Temp_ion =    6246.664 K

                     ====================================
                        Begin MD step =     99
                     ====================================

outcell: Unit cell vectors (Ang):
       10.000000    0.000000    0.000000
        0.000000   10.000000    0.000000
        0.000000    0.000000   10.000000

outcell: Cell vector modules (Ang)   :   10.000000   10.000000   10.000000
outcell: Cell angles (23,13,12) (deg):     90.0000     90.0000     90.0000
outcell: Cell volume (Ang**3)        :   1000.0000
<dSpData1D:S at geom step 99
  <sparsity:sparsity for geom step 99
    nrows_g=36 nrows=36 sparsity=1.0000 nnzs=1296, refcount: 7>
  <dData1D:(new from dSpData1D) n=1296, refcount: 1>
refcount: 1>
new_DM -- step:    99
Re-using DM from previous geometries...
Number of DMs in history: 1
 DM extrapolation coefficients: 
1   1.00000
New DM after history re-use:
<dSpData2D:SpM extrapolated using coords
  <sparsity:sparsity for geom step 99
    nrows_g=36 nrows=36 sparsity=1.0000 nnzs=1296, refcount: 9>
  <dData2D:(temp array for extrapolation) n=1296 m=1, refcount: 1>
refcount: 1>
Note: For starting DM, Qtot, Tr[D*S] =         14.00000000         14.03504080
No. of atoms with KB's overlaping orbs in proc 0. Max # of overlaps:       4      36
New grid distribution:   1
           1       1:   45    1:   45    1:   45

InitMesh: MESH =    90 x    90 x    90 =      729000
InitMesh: (bp) =    45 x    45 x    45 =       91125
InitMesh: Mesh cutoff (required, used) =   200.000   223.865 Ry
ExtMesh (bp) on 0 =   117 x   117 x   117 =     1601613
PhiOnMesh: Number of (b)points on node 0 =                91125
PhiOnMesh: nlist on node 0 =               451086

        iscf     Eharris(eV)        E_KS(eV)     FreeEng(eV)     dDmax    Ef(eV) dHmax(eV)
   scf:    1     -896.757775     -897.401618     -897.413648  0.653788 -6.684145  2.262864
   scf:    2     -807.937476     -868.779673     -868.807067  3.046359 -4.955691 27.618905
   scf:    3     -904.489196     -897.041668     -897.081904  1.371992 -6.594458  3.755356
   scf:    4     -890.506437     -895.799814     -895.800225  2.853740 -6.831948  6.651931
   scf:    5     -898.249256     -897.462658     -897.477674  1.285016 -6.679150  1.828341
   scf:    6     -891.428281     -895.880427     -895.918104  2.445460 -6.497056  6.388526
   scf:    7     -896.195544     -896.040021     -896.076139  0.079149 -6.502628  6.073910
   scf:    8     -888.019054     -892.575257     -892.639732  1.027297 -6.512065 10.761451
   scf:    9     -895.047187     -893.858824     -893.919532  0.431336 -6.567736  9.249415
   scf:   10     -896.359307     -897.560116     -897.565788  2.461614 -6.527627  1.423880
   scf:   11     -897.676412     -897.642311     -897.655799  0.196287 -6.563184  0.510151
   scf:   12     -897.486042     -897.604177     -897.634350  0.280779 -6.587449  0.971244
   scf:   13     -897.594278     -897.605521     -897.640531  0.138095 -6.620690  0.622746
   scf:   14     -897.614632     -897.643149     -897.659995  0.182873 -6.568612  0.592077
   scf:   15     -897.623524     -897.641809     -897.670123  0.085833 -6.616289  0.048910
   scf:   16     -897.640556     -897.641599     -897.669097  0.030867 -6.609264  0.076942
   scf:   17     -897.599376     -897.628069     -897.657635  0.137461 -6.617241  0.566193
   scf:   18     -897.631048     -897.648625     -897.667128  0.246170 -6.623091  0.362701
   scf:   19     -897.649024     -897.650898     -897.672852  0.079122 -6.622241  0.050994
   scf:   20     -897.651298     -897.651152     -897.672514  0.012622 -6.622521  0.100489
   scf:   21     -897.651169     -897.651164     -897.672624  0.004974 -6.621365  0.084612
   scf:   22     -897.649914     -897.650640     -897.672951  0.017389 -6.620795  0.017685
   scf:   23     -897.649715     -897.650197     -897.672965  0.006897 -6.620852  0.011152
   scf:   24     -897.650618     -897.650412     -897.672971  0.003969 -6.621354  0.004510
   scf:   25     -897.650455     -897.650434     -897.672970  0.000435 -6.621486  0.004166
   scf:   26     -897.650325     -897.650379     -897.672972  0.000733 -6.621245  0.004153
   scf:   27     -897.649816     -897.650109     -897.672954  0.008301 -6.619906  0.022688
   scf:   28     -897.650642     -897.650385     -897.672972  0.005185 -6.619963  0.003162
   scf:   29     -897.650436     -897.650410     -897.672972  0.000481 -6.619920  0.003321
   scf:   30     -897.650456     -897.650433     -897.672972  0.000804 -6.619944  0.003365
   scf:   31     -897.650053     -897.650244     -897.672974  0.001259 -6.620153  0.001825
   scf:   32     -897.650246     -897.650245     -897.672974  0.000011 -6.620163  0.001796
   scf:   33     -897.650396     -897.650321     -897.672974  0.000578 -6.620710  0.001287
   scf:   34     -897.650323     -897.650322     -897.672974  0.000224 -6.620910  0.001180
   scf:   35     -897.650235     -897.650279     -897.672975  0.000586 -6.621045  0.000480
   scf:   36     -897.650294     -897.650287     -897.672975  0.000164 -6.621065  0.000416

SCF Convergence by DM+H criterion
max |DM_out - DM_in|         :     0.0001642175
max |H_out - H_in|      (eV) :     0.0004159388
SCF cycle converged after 36 iterations

Using DM_out to compute the final energy and forces
No. of atoms with KB's overlaping orbs in proc 0. Max # of overlaps:       4      36

siesta: E_KS(eV) =             -897.6503

siesta: Atomic forces (eV/Ang):
----------------------------------------
   Tot    0.005178   -0.001012    0.009554
----------------------------------------
   Max    2.779404
   Res    1.466792    sqrt( Sum f_i^2 / 3N )
----------------------------------------
   Max    2.779404    constrained

Stress tensor Voigt[x,y,z,yz,xz,xy] (kbar):        2.24        7.72       -1.76        2.51        2.03        7.05
(Free)E + p*V (eV/cell)     -899.3782
Target enthalpy (eV/cell)     -897.6730

siesta: Stress tensor (static) (eV/Ang**3):
         0.004330    0.004728    0.000652
         0.004728    0.005265    0.002164
         0.000652    0.002165    0.000330

siesta: Pressure (static):         -5.30074868  kBar

siesta: Stress tensor (total) (eV/Ang**3):
         0.001396    0.004398    0.001266
         0.004398    0.004821    0.001567
         0.001266    0.001567   -0.001101

siesta: Pressure (total):         -2.73214388  kBar

siesta: Temp_ion =    6620.105 K

                     ====================================
                        Begin MD step =    100
                     ====================================

outcell: Unit cell vectors (Ang):
       10.000000    0.000000    0.000000
        0.000000   10.000000    0.000000
        0.000000    0.000000   10.000000

outcell: Cell vector modules (Ang)   :   10.000000   10.000000   10.000000
outcell: Cell angles (23,13,12) (deg):     90.0000     90.0000     90.0000
outcell: Cell volume (Ang**3)        :   1000.0000
<dSpData1D:S at geom step 100
  <sparsity:sparsity for geom step 100
    nrows_g=36 nrows=36 sparsity=1.0000 nnzs=1296, refcount: 7>
  <dData1D:(new from dSpData1D) n=1296, refcount: 1>
refcount: 1>
new_DM -- step:   100
Re-using DM from previous geometries...
Number of DMs in history: 1
 DM extrapolation coefficients: 
1   1.00000
New DM after history re-use:
<dSpData2D:SpM extrapolated using coords
  <sparsity:sparsity for geom step 100
    nrows_g=36 nrows=36 sparsity=1.0000 nnzs=1296, refcount: 9>
  <dData2D:(temp array for extrapolation) n=1296 m=1, refcount: 1>
refcount: 1>
Note: For starting DM, Qtot, Tr[D*S] =         14.00000000         14.02407600
No. of atoms with KB's overlaping orbs in proc 0. Max # of overlaps:       4      36
New grid distribution:   1
           1       1:   45    1:   45    1:   45

InitMesh: MESH =    90 x    90 x    90 =      729000
InitMesh: (bp) =    45 x    45 x    45 =       91125
InitMesh: Mesh cutoff (required, used) =   200.000   223.865 Ry
ExtMesh (bp) on 0 =   117 x   117 x   117 =     1601613
PhiOnMesh: Number of (b)points on node 0 =                91125
PhiOnMesh: nlist on node 0 =               451114

        iscf     Eharris(eV)        E_KS(eV)     FreeEng(eV)     dDmax    Ef(eV) dHmax(eV)
   scf:    1     -897.622015     -897.720292     -897.741750  0.204039 -6.640719  0.710259
   scf:    2     -880.065030     -891.938104     -891.966461  3.047055 -6.405361 11.749907
   scf:    3     -897.751705     -897.741436     -897.764374  2.930807 -6.634101  0.492851
   scf:    4     -897.761544     -897.755201     -897.778732  0.099055 -6.629221  0.182743
   scf:    5     -897.757264     -897.758425     -897.780971  0.058519 -6.631539  0.104388
   scf:    6     -897.745711     -897.753556     -897.780413  0.051409 -6.634919  0.048120
   scf:    7     -897.750947     -897.752629     -897.780863  0.023962 -6.635596  0.105609
   scf:    8     -897.758487     -897.756398     -897.782693  0.051682 -6.638404  0.020769
   scf:    9     -897.756604     -897.756512     -897.782748  0.005139 -6.639278  0.014327
   scf:   10     -897.760098     -897.758399     -897.782925  0.016610 -6.640915  0.004585
   scf:   11     -897.758194     -897.758297     -897.782929  0.000888 -6.640892  0.004810
   scf:   12     -897.758062     -897.758180     -897.782930  0.001603 -6.641039  0.004848
   scf:   13     -897.757933     -897.758058     -897.782929  0.002143 -6.641324  0.003115
   scf:   14     -897.758059     -897.758060     -897.782936  0.002371 -6.641459  0.000927
   scf:   15     -897.758048     -897.758054     -897.782937  0.000104 -6.641477  0.000940

SCF Convergence by DM+H criterion
max |DM_out - DM_in|         :     0.0001038517
max |H_out - H_in|      (eV) :     0.0009397202
SCF cycle converged after 15 iterations

Using DM_out to compute the final energy and forces
No. of atoms with KB's overlaping orbs in proc 0. Max # of overlaps:       4      36

siesta: E_KS(eV) =             -897.7581

siesta: Atomic forces (eV/Ang):
----------------------------------------
   Tot    0.005219    0.002547    0.011533
----------------------------------------
   Max    2.723107
   Res    1.453163    sqrt( Sum f_i^2 / 3N )
----------------------------------------
   Max    2.723107    constrained

Stress tensor Voigt[x,y,z,yz,xz,xy] (kbar):        1.96        7.80       -2.86        2.09        2.06        7.38
(Free)E + p*V (eV/cell)     -899.2182
Target enthalpy (eV/cell)     -897.7829

siesta: Stress tensor (static) (eV/Ang**3):
         0.004149    0.004899    0.000606
         0.004900    0.005424    0.002062
         0.000605    0.002061   -0.000171

siesta: Pressure (static):         -5.02168295  kBar

siesta: Stress tensor (total) (eV/Ang**3):
         0.001223    0.004604    0.001288
         0.004605    0.004867    0.001303
         0.001287    0.001302   -0.001785

siesta: Pressure (total):         -2.29952074  kBar

siesta: Temp_ion =    6903.350 K

coxmol: Writing XMOL coordinates into file xoc.xyz                                                             

siesta: Program's energy decomposition (eV):
siesta: Ebs     =      -189.638175
siesta: Eions   =      1592.294315
siesta: Ena     =       382.535336
siesta: Ekin    =       625.939526
siesta: Enl     =       -90.121757
siesta: Eso     =         0.000000
siesta: Edftu   =         0.000000
siesta: DEna    =       -23.531681
siesta: DUscf   =         2.827353
siesta: DUext   =         0.000000
siesta: Exc     =      -203.112517
siesta: eta*DQ  =         0.000000
siesta: Emadel  =         0.000000
siesta: Emeta   =         0.000000
siesta: Emolmec =         0.000000
siesta: Ekinion =         2.676878
siesta: Eharris =      -895.081170
siesta: Etot    =      -895.081176
siesta: FreeEng =      -895.106059

siesta: Final energy (eV):
siesta:  Band Struct. =    -189.638175
siesta:       Kinetic =     625.939526
siesta:       Hartree =     859.206641
siesta:       Edftu   =       0.000000
siesta:       Eso     =       0.000000
siesta:    Ext. field =       0.000000
siesta:   Exch.-corr. =    -203.112517
siesta:  Ion-electron =   -2275.268615
siesta:       Ion-ion =      95.476912
siesta:       Ekinion =       2.676878
siesta:         Total =    -895.081176
siesta:         Fermi =      -6.641477

siesta: Atomic forces (eV/Ang):
siesta:      1    2.574401    2.723107    0.262455
siesta:      2   -0.840912   -1.413912    1.563958
siesta:      3   -0.790709    0.333589   -1.155870
siesta:      4   -0.937561   -1.640238   -0.659009
siesta: ----------------------------------------
siesta:    Tot    0.005219    0.002547    0.011533

siesta: Stress tensor (static) (eV/Ang**3):
siesta:     0.004149    0.004899    0.000606
siesta:     0.004900    0.005424    0.002062
siesta:     0.000605    0.002061   -0.000171

siesta: Cell volume =       1000.000000 Ang**3

siesta: Pressure (static):
siesta:                Solid            Molecule  Units
siesta:          -0.00003414         -0.00000018  Ry/Bohr**3
siesta:          -0.00313425         -0.00001687  eV/Ang**3
siesta:          -5.02168295         -0.02702575  kBar
(Free)E+ p_basis*V_orbitals  =        -895.574345
(Free)Eharris+ p_basis*V_orbitals  =        -895.574339

siesta: Electric dipole (a.u.)  =    0.622709    1.300016   -0.190936
siesta: Electric dipole (Debye) =    1.582769    3.304313   -0.485312

cite: Please see "xoc.bib" for an exhaustive BiBTeX file.
cite: Please clearly indicate Siesta version in published work: 4.1.5
cite: This calculation has made use of the following articles
cite: which are encouraged to be cited in a published work.
        Primary SIESTA paper
          DOI: www.doi.org/10.1088/0953-8984/14/11/302


timer: Elapsed wall time (sec) =     647.854
timer: CPU execution times (sec):

Routine            Calls   Time/call    Tot.time        %
siesta                 1    3196.629    3196.629   100.00
Setup                  1       1.070       1.070     0.03
bands                  1       0.000       0.000     0.00
KSV_init               1       0.000       0.000     0.00
IterGeom             100      31.956    3195.558    99.97
state_init           100       0.002       0.182     0.01
hsparse              100       0.000       0.017     0.00
overlap              100       0.001       0.147     0.00
Setup_H0             100       0.305      30.511     0.95
naefs                200       0.000       0.005     0.00
MolMec               200       0.000       0.000     0.00
kinefsm              200       0.001       0.169     0.01
nlefsm               200       0.005       0.932     0.03
DHSCF_Init           100       0.295      29.524     0.92
DHSCF1               100       0.020       1.954     0.06
INITMESH             100       0.000       0.001     0.00
DHSCF2               100       0.276      27.570     0.86
REMESH               100       0.061       6.108     0.19
REORD               7084       0.004      31.278     0.98
PHION                100       0.161      16.145     0.51
COMM_BSC           11468       0.004      43.260     1.35
POISON              2892       0.346     999.711    31.27
fft                 5784       0.135     778.929    24.37
IterSCF             2592       1.206    3126.360    97.80
setup_H             2692       1.159    3121.180    97.64
DHSCF               2792       1.132    3159.254    98.83
DHSCF3              2792       1.124    3139.165    98.20
rhoofd              2792       0.371    1035.770    32.40
XC                  2792       0.286     799.054    25.00
GXC-CellXC          2792       0.271     757.135    23.69
cellXC              2792       0.271     757.014    23.68
vmat                2792       0.016      45.758     1.43
compute_dm          2592       0.002       4.708     0.15
diagon              2592       0.002       4.588     0.14
r-eigvec            2592       0.001       2.915     0.09
r-buildHS           2592       0.000       0.009     0.00
rdiag               2592       0.001       2.823     0.09
rdiag1              2592       0.000       0.026     0.00
rdiag2              2592       0.000       0.047     0.00
rdiag3              2592       0.000       0.305     0.01
rdiag4              2592       0.001       2.288     0.07
r-buildD            2592       0.001       1.301     0.04
MIXER               2492       0.000       0.108     0.00
PostSCF              100       0.384      38.450     1.20
DHSCF4               100       0.201      20.069     0.63
dfscf                100       0.162      16.204     0.51
overfsm              100       0.000       0.026     0.00
state_analysis       100       0.000       0.017     0.00
siesta_move          100       0.000       0.025     0.00
Analysis               1       0.000       0.000     0.00
siesta_analysis        1       0.000       0.000     0.00
optical                1       0.000       0.000     0.00
  
>> End of run:  15-MAR-2024  13:47:40
Job completed
Job completed
